+ 0.2 0 1 cbr 210 ------- 0 0.0 3.0 0 0
- 0.2 0 1 cbr 210 ------- 0 0.0 3.0 0 0
r 0.200021 0 1 cbr 210 ------- 0 0.0 3.0 0 0
+ 0.200021 1 2 cbr 210 ------- 0 0.0 3.0 0 0
- 0.200021 1 2 cbr 210 ------- 0 0.0 3.0 0 0
r 0.200189 1 2 cbr 210 ------- 0 0.0 3.0 0 0
+ 0.200189 2 3 cbr 210 ------- 0 0.0 3.0 0 0
- 0.200189 2 3 cbr 210 ------- 0 0.0 3.0 0 0
r 0.201029 2 3 cbr 210 ------- 0 0.0 3.0 0 0
+ 0.20375 0 1 cbr 210 ------- 0 0.0 3.0 1 1
- 0.20375 0 1 cbr 210 ------- 0 0.0 3.0 1 1
r 0.203771 0 1 cbr 210 ------- 0 0.0 3.0 1 1
+ 0.203771 1 2 cbr 210 ------- 0 0.0 3.0 1 1
- 0.203771 1 2 cbr 210 ------- 0 0.0 3.0 1 1
r 0.203939 1 2 cbr 210 ------- 0 0.0 3.0 1 1
+ 0.203939 2 3 cbr 210 ------- 0 0.0 3.0 1 1
- 0.203939 2 3 cbr 210 ------- 0 0.0 3.0 1 1
r 0.204779 2 3 cbr 210 ------- 0 0.0 3.0 1 1
+ 0.2075 0 1 cbr 210 ------- 0 0.0 3.0 2 2
- 0.2075 0 1 cbr 210 ------- 0 0.0 3.0 2 2
r 0.207521 0 1 cbr 210 ------- 0 0.0 3.0 2 2
+ 0.207521 1 2 cbr 210 ------- 0 0.0 3.0 2 2
- 0.207521 1 2 cbr 210 ------- 0 0.0 3.0 2 2
r 0.207689 1 2 cbr 210 ------- 0 0.0 3.0 2 2
+ 0.207689 2 3 cbr 210 ------- 0 0.0 3.0 2 2
- 0.207689 2 3 cbr 210 ------- 0 0.0 3.0 2 2
r 0.208529 2 3 cbr 210 ------- 0 0.0 3.0 2 2
+ 0.21125 0 1 cbr 210 ------- 0 0.0 3.0 3 3
- 0.21125 0 1 cbr 210 ------- 0 0.0 3.0 3 3
r 0.211271 0 1 cbr 210 ------- 0 0.0 3.0 3 3
+ 0.211271 1 2 cbr 210 ------- 0 0.0 3.0 3 3
- 0.211271 1 2 cbr 210 ------- 0 0.0 3.0 3 3
r 0.211439 1 2 cbr 210 ------- 0 0.0 3.0 3 3
+ 0.211439 2 3 cbr 210 ------- 0 0.0 3.0 3 3
- 0.211439 2 3 cbr 210 ------- 0 0.0 3.0 3 3
r 0.212279 2 3 cbr 210 ------- 0 0.0 3.0 3 3
+ 0.215 0 1 cbr 210 ------- 0 0.0 3.0 4 4
- 0.215 0 1 cbr 210 ------- 0 0.0 3.0 4 4
r 0.215021 0 1 cbr 210 ------- 0 0.0 3.0 4 4
+ 0.215021 1 2 cbr 210 ------- 0 0.0 3.0 4 4
- 0.215021 1 2 cbr 210 ------- 0 0.0 3.0 4 4
r 0.215189 1 2 cbr 210 ------- 0 0.0 3.0 4 4
+ 0.215189 2 3 cbr 210 ------- 0 0.0 3.0 4 4
- 0.215189 2 3 cbr 210 ------- 0 0.0 3.0 4 4
r 0.216029 2 3 cbr 210 ------- 0 0.0 3.0 4 4
+ 0.21875 0 1 cbr 210 ------- 0 0.0 3.0 5 5
- 0.21875 0 1 cbr 210 ------- 0 0.0 3.0 5 5
r 0.218771 0 1 cbr 210 ------- 0 0.0 3.0 5 5
+ 0.218771 1 2 cbr 210 ------- 0 0.0 3.0 5 5
- 0.218771 1 2 cbr 210 ------- 0 0.0 3.0 5 5
r 0.218939 1 2 cbr 210 ------- 0 0.0 3.0 5 5
+ 0.218939 2 3 cbr 210 ------- 0 0.0 3.0 5 5
- 0.218939 2 3 cbr 210 ------- 0 0.0 3.0 5 5
r 0.219779 2 3 cbr 210 ------- 0 0.0 3.0 5 5
+ 0.2225 0 1 cbr 210 ------- 0 0.0 3.0 6 6
- 0.2225 0 1 cbr 210 ------- 0 0.0 3.0 6 6
r 0.222521 0 1 cbr 210 ------- 0 0.0 3.0 6 6
+ 0.222521 1 2 cbr 210 ------- 0 0.0 3.0 6 6
- 0.222521 1 2 cbr 210 ------- 0 0.0 3.0 6 6
r 0.222689 1 2 cbr 210 ------- 0 0.0 3.0 6 6
+ 0.222689 2 3 cbr 210 ------- 0 0.0 3.0 6 6
- 0.222689 2 3 cbr 210 ------- 0 0.0 3.0 6 6
r 0.223529 2 3 cbr 210 ------- 0 0.0 3.0 6 6
+ 0.22625 0 1 cbr 210 ------- 0 0.0 3.0 7 7
- 0.22625 0 1 cbr 210 ------- 0 0.0 3.0 7 7
r 0.226271 0 1 cbr 210 ------- 0 0.0 3.0 7 7
+ 0.226271 1 2 cbr 210 ------- 0 0.0 3.0 7 7
- 0.226271 1 2 cbr 210 ------- 0 0.0 3.0 7 7
r 0.226439 1 2 cbr 210 ------- 0 0.0 3.0 7 7
+ 0.226439 2 3 cbr 210 ------- 0 0.0 3.0 7 7
- 0.226439 2 3 cbr 210 ------- 0 0.0 3.0 7 7
r 0.227279 2 3 cbr 210 ------- 0 0.0 3.0 7 7
+ 0.23 0 1 cbr 210 ------- 0 0.0 3.0 8 8
- 0.23 0 1 cbr 210 ------- 0 0.0 3.0 8 8
r 0.230021 0 1 cbr 210 ------- 0 0.0 3.0 8 8
+ 0.230021 1 2 cbr 210 ------- 0 0.0 3.0 8 8
- 0.230021 1 2 cbr 210 ------- 0 0.0 3.0 8 8
r 0.230189 1 2 cbr 210 ------- 0 0.0 3.0 8 8
+ 0.230189 2 3 cbr 210 ------- 0 0.0 3.0 8 8
- 0.230189 2 3 cbr 210 ------- 0 0.0 3.0 8 8
r 0.231029 2 3 cbr 210 ------- 0 0.0 3.0 8 8
+ 0.23375 0 1 cbr 210 ------- 0 0.0 3.0 9 9
- 0.23375 0 1 cbr 210 ------- 0 0.0 3.0 9 9
r 0.233771 0 1 cbr 210 ------- 0 0.0 3.0 9 9
+ 0.233771 1 2 cbr 210 ------- 0 0.0 3.0 9 9
- 0.233771 1 2 cbr 210 ------- 0 0.0 3.0 9 9
r 0.233939 1 2 cbr 210 ------- 0 0.0 3.0 9 9
+ 0.233939 2 3 cbr 210 ------- 0 0.0 3.0 9 9
- 0.233939 2 3 cbr 210 ------- 0 0.0 3.0 9 9
r 0.234779 2 3 cbr 210 ------- 0 0.0 3.0 9 9
+ 0.2375 0 1 cbr 210 ------- 0 0.0 3.0 10 10
- 0.2375 0 1 cbr 210 ------- 0 0.0 3.0 10 10
r 0.237521 0 1 cbr 210 ------- 0 0.0 3.0 10 10
+ 0.237521 1 2 cbr 210 ------- 0 0.0 3.0 10 10
- 0.237521 1 2 cbr 210 ------- 0 0.0 3.0 10 10
r 0.237689 1 2 cbr 210 ------- 0 0.0 3.0 10 10
+ 0.237689 2 3 cbr 210 ------- 0 0.0 3.0 10 10
- 0.237689 2 3 cbr 210 ------- 0 0.0 3.0 10 10
r 0.238529 2 3 cbr 210 ------- 0 0.0 3.0 10 10
+ 0.24125 0 1 cbr 210 ------- 0 0.0 3.0 11 11
- 0.24125 0 1 cbr 210 ------- 0 0.0 3.0 11 11
r 0.241271 0 1 cbr 210 ------- 0 0.0 3.0 11 11
+ 0.241271 1 2 cbr 210 ------- 0 0.0 3.0 11 11
- 0.241271 1 2 cbr 210 ------- 0 0.0 3.0 11 11
r 0.241439 1 2 cbr 210 ------- 0 0.0 3.0 11 11
+ 0.241439 2 3 cbr 210 ------- 0 0.0 3.0 11 11
- 0.241439 2 3 cbr 210 ------- 0 0.0 3.0 11 11
r 0.242279 2 3 cbr 210 ------- 0 0.0 3.0 11 11
+ 0.245 0 1 cbr 210 ------- 0 0.0 3.0 12 12
- 0.245 0 1 cbr 210 ------- 0 0.0 3.0 12 12
r 0.245021 0 1 cbr 210 ------- 0 0.0 3.0 12 12
+ 0.245021 1 2 cbr 210 ------- 0 0.0 3.0 12 12
- 0.245021 1 2 cbr 210 ------- 0 0.0 3.0 12 12
r 0.245189 1 2 cbr 210 ------- 0 0.0 3.0 12 12
+ 0.245189 2 3 cbr 210 ------- 0 0.0 3.0 12 12
- 0.245189 2 3 cbr 210 ------- 0 0.0 3.0 12 12
r 0.246029 2 3 cbr 210 ------- 0 0.0 3.0 12 12
+ 0.24875 0 1 cbr 210 ------- 0 0.0 3.0 13 13
- 0.24875 0 1 cbr 210 ------- 0 0.0 3.0 13 13
r 0.248771 0 1 cbr 210 ------- 0 0.0 3.0 13 13
+ 0.248771 1 2 cbr 210 ------- 0 0.0 3.0 13 13
- 0.248771 1 2 cbr 210 ------- 0 0.0 3.0 13 13
r 0.248939 1 2 cbr 210 ------- 0 0.0 3.0 13 13
+ 0.248939 2 3 cbr 210 ------- 0 0.0 3.0 13 13
- 0.248939 2 3 cbr 210 ------- 0 0.0 3.0 13 13
r 0.249779 2 3 cbr 210 ------- 0 0.0 3.0 13 13
+ 0.2525 0 1 cbr 210 ------- 0 0.0 3.0 14 14
- 0.2525 0 1 cbr 210 ------- 0 0.0 3.0 14 14
r 0.252521 0 1 cbr 210 ------- 0 0.0 3.0 14 14
+ 0.252521 1 2 cbr 210 ------- 0 0.0 3.0 14 14
- 0.252521 1 2 cbr 210 ------- 0 0.0 3.0 14 14
r 0.252689 1 2 cbr 210 ------- 0 0.0 3.0 14 14
+ 0.252689 2 3 cbr 210 ------- 0 0.0 3.0 14 14
- 0.252689 2 3 cbr 210 ------- 0 0.0 3.0 14 14
r 0.253529 2 3 cbr 210 ------- 0 0.0 3.0 14 14
+ 0.25625 0 1 cbr 210 ------- 0 0.0 3.0 15 15
- 0.25625 0 1 cbr 210 ------- 0 0.0 3.0 15 15
r 0.256271 0 1 cbr 210 ------- 0 0.0 3.0 15 15
+ 0.256271 1 2 cbr 210 ------- 0 0.0 3.0 15 15
- 0.256271 1 2 cbr 210 ------- 0 0.0 3.0 15 15
r 0.256439 1 2 cbr 210 ------- 0 0.0 3.0 15 15
+ 0.256439 2 3 cbr 210 ------- 0 0.0 3.0 15 15
- 0.256439 2 3 cbr 210 ------- 0 0.0 3.0 15 15
r 0.257279 2 3 cbr 210 ------- 0 0.0 3.0 15 15
+ 0.26 0 1 cbr 210 ------- 0 0.0 3.0 16 16
- 0.26 0 1 cbr 210 ------- 0 0.0 3.0 16 16
r 0.260021 0 1 cbr 210 ------- 0 0.0 3.0 16 16
+ 0.260021 1 2 cbr 210 ------- 0 0.0 3.0 16 16
- 0.260021 1 2 cbr 210 ------- 0 0.0 3.0 16 16
r 0.260189 1 2 cbr 210 ------- 0 0.0 3.0 16 16
+ 0.260189 2 3 cbr 210 ------- 0 0.0 3.0 16 16
- 0.260189 2 3 cbr 210 ------- 0 0.0 3.0 16 16
r 0.261029 2 3 cbr 210 ------- 0 0.0 3.0 16 16
+ 0.26375 0 1 cbr 210 ------- 0 0.0 3.0 17 17
- 0.26375 0 1 cbr 210 ------- 0 0.0 3.0 17 17
r 0.263771 0 1 cbr 210 ------- 0 0.0 3.0 17 17
+ 0.263771 1 2 cbr 210 ------- 0 0.0 3.0 17 17
- 0.263771 1 2 cbr 210 ------- 0 0.0 3.0 17 17
r 0.263939 1 2 cbr 210 ------- 0 0.0 3.0 17 17
+ 0.263939 2 3 cbr 210 ------- 0 0.0 3.0 17 17
- 0.263939 2 3 cbr 210 ------- 0 0.0 3.0 17 17
r 0.264779 2 3 cbr 210 ------- 0 0.0 3.0 17 17
+ 0.2675 0 1 cbr 210 ------- 0 0.0 3.0 18 18
- 0.2675 0 1 cbr 210 ------- 0 0.0 3.0 18 18
r 0.267521 0 1 cbr 210 ------- 0 0.0 3.0 18 18
+ 0.267521 1 2 cbr 210 ------- 0 0.0 3.0 18 18
- 0.267521 1 2 cbr 210 ------- 0 0.0 3.0 18 18
r 0.267689 1 2 cbr 210 ------- 0 0.0 3.0 18 18
+ 0.267689 2 3 cbr 210 ------- 0 0.0 3.0 18 18
- 0.267689 2 3 cbr 210 ------- 0 0.0 3.0 18 18
r 0.268529 2 3 cbr 210 ------- 0 0.0 3.0 18 18
+ 0.27125 0 1 cbr 210 ------- 0 0.0 3.0 19 19
- 0.27125 0 1 cbr 210 ------- 0 0.0 3.0 19 19
r 0.271271 0 1 cbr 210 ------- 0 0.0 3.0 19 19
+ 0.271271 1 2 cbr 210 ------- 0 0.0 3.0 19 19
- 0.271271 1 2 cbr 210 ------- 0 0.0 3.0 19 19
r 0.271439 1 2 cbr 210 ------- 0 0.0 3.0 19 19
+ 0.271439 2 3 cbr 210 ------- 0 0.0 3.0 19 19
- 0.271439 2 3 cbr 210 ------- 0 0.0 3.0 19 19
r 0.272279 2 3 cbr 210 ------- 0 0.0 3.0 19 19
+ 0.275 0 1 cbr 210 ------- 0 0.0 3.0 20 20
- 0.275 0 1 cbr 210 ------- 0 0.0 3.0 20 20
r 0.275021 0 1 cbr 210 ------- 0 0.0 3.0 20 20
+ 0.275021 1 2 cbr 210 ------- 0 0.0 3.0 20 20
- 0.275021 1 2 cbr 210 ------- 0 0.0 3.0 20 20
r 0.275189 1 2 cbr 210 ------- 0 0.0 3.0 20 20
+ 0.275189 2 3 cbr 210 ------- 0 0.0 3.0 20 20
- 0.275189 2 3 cbr 210 ------- 0 0.0 3.0 20 20
r 0.276029 2 3 cbr 210 ------- 0 0.0 3.0 20 20
+ 0.27875 0 1 cbr 210 ------- 0 0.0 3.0 21 21
- 0.27875 0 1 cbr 210 ------- 0 0.0 3.0 21 21
r 0.278771 0 1 cbr 210 ------- 0 0.0 3.0 21 21
+ 0.278771 1 2 cbr 210 ------- 0 0.0 3.0 21 21
- 0.278771 1 2 cbr 210 ------- 0 0.0 3.0 21 21
r 0.278939 1 2 cbr 210 ------- 0 0.0 3.0 21 21
+ 0.278939 2 3 cbr 210 ------- 0 0.0 3.0 21 21
- 0.278939 2 3 cbr 210 ------- 0 0.0 3.0 21 21
r 0.279779 2 3 cbr 210 ------- 0 0.0 3.0 21 21
+ 0.2825 0 1 cbr 210 ------- 0 0.0 3.0 22 22
- 0.2825 0 1 cbr 210 ------- 0 0.0 3.0 22 22
r 0.282521 0 1 cbr 210 ------- 0 0.0 3.0 22 22
+ 0.282521 1 2 cbr 210 ------- 0 0.0 3.0 22 22
- 0.282521 1 2 cbr 210 ------- 0 0.0 3.0 22 22
r 0.282689 1 2 cbr 210 ------- 0 0.0 3.0 22 22
+ 0.282689 2 3 cbr 210 ------- 0 0.0 3.0 22 22
- 0.282689 2 3 cbr 210 ------- 0 0.0 3.0 22 22
r 0.283529 2 3 cbr 210 ------- 0 0.0 3.0 22 22
+ 0.28625 0 1 cbr 210 ------- 0 0.0 3.0 23 23
- 0.28625 0 1 cbr 210 ------- 0 0.0 3.0 23 23
r 0.286271 0 1 cbr 210 ------- 0 0.0 3.0 23 23
+ 0.286271 1 2 cbr 210 ------- 0 0.0 3.0 23 23
- 0.286271 1 2 cbr 210 ------- 0 0.0 3.0 23 23
r 0.286439 1 2 cbr 210 ------- 0 0.0 3.0 23 23
+ 0.286439 2 3 cbr 210 ------- 0 0.0 3.0 23 23
- 0.286439 2 3 cbr 210 ------- 0 0.0 3.0 23 23
r 0.287279 2 3 cbr 210 ------- 0 0.0 3.0 23 23
+ 0.29 0 1 cbr 210 ------- 0 0.0 3.0 24 24
- 0.29 0 1 cbr 210 ------- 0 0.0 3.0 24 24
r 0.290021 0 1 cbr 210 ------- 0 0.0 3.0 24 24
+ 0.290021 1 2 cbr 210 ------- 0 0.0 3.0 24 24
- 0.290021 1 2 cbr 210 ------- 0 0.0 3.0 24 24
r 0.290189 1 2 cbr 210 ------- 0 0.0 3.0 24 24
+ 0.290189 2 3 cbr 210 ------- 0 0.0 3.0 24 24
- 0.290189 2 3 cbr 210 ------- 0 0.0 3.0 24 24
r 0.291029 2 3 cbr 210 ------- 0 0.0 3.0 24 24
+ 0.29375 0 1 cbr 210 ------- 0 0.0 3.0 25 25
- 0.29375 0 1 cbr 210 ------- 0 0.0 3.0 25 25
r 0.293771 0 1 cbr 210 ------- 0 0.0 3.0 25 25
+ 0.293771 1 2 cbr 210 ------- 0 0.0 3.0 25 25
- 0.293771 1 2 cbr 210 ------- 0 0.0 3.0 25 25
r 0.293939 1 2 cbr 210 ------- 0 0.0 3.0 25 25
+ 0.293939 2 3 cbr 210 ------- 0 0.0 3.0 25 25
- 0.293939 2 3 cbr 210 ------- 0 0.0 3.0 25 25
r 0.294779 2 3 cbr 210 ------- 0 0.0 3.0 25 25
+ 0.2975 0 1 cbr 210 ------- 0 0.0 3.0 26 26
- 0.2975 0 1 cbr 210 ------- 0 0.0 3.0 26 26
r 0.297521 0 1 cbr 210 ------- 0 0.0 3.0 26 26
+ 0.297521 1 2 cbr 210 ------- 0 0.0 3.0 26 26
- 0.297521 1 2 cbr 210 ------- 0 0.0 3.0 26 26
r 0.297689 1 2 cbr 210 ------- 0 0.0 3.0 26 26
+ 0.297689 2 3 cbr 210 ------- 0 0.0 3.0 26 26
- 0.297689 2 3 cbr 210 ------- 0 0.0 3.0 26 26
r 0.298529 2 3 cbr 210 ------- 0 0.0 3.0 26 26
+ 0.30125 0 1 cbr 210 ------- 0 0.0 3.0 27 27
- 0.30125 0 1 cbr 210 ------- 0 0.0 3.0 27 27
r 0.301271 0 1 cbr 210 ------- 0 0.0 3.0 27 27
+ 0.301271 1 2 cbr 210 ------- 0 0.0 3.0 27 27
- 0.301271 1 2 cbr 210 ------- 0 0.0 3.0 27 27
r 0.301439 1 2 cbr 210 ------- 0 0.0 3.0 27 27
+ 0.301439 2 3 cbr 210 ------- 0 0.0 3.0 27 27
- 0.301439 2 3 cbr 210 ------- 0 0.0 3.0 27 27
r 0.302279 2 3 cbr 210 ------- 0 0.0 3.0 27 27
+ 0.305 0 1 cbr 210 ------- 0 0.0 3.0 28 28
- 0.305 0 1 cbr 210 ------- 0 0.0 3.0 28 28
r 0.305021 0 1 cbr 210 ------- 0 0.0 3.0 28 28
+ 0.305021 1 2 cbr 210 ------- 0 0.0 3.0 28 28
- 0.305021 1 2 cbr 210 ------- 0 0.0 3.0 28 28
r 0.305189 1 2 cbr 210 ------- 0 0.0 3.0 28 28
+ 0.305189 2 3 cbr 210 ------- 0 0.0 3.0 28 28
- 0.305189 2 3 cbr 210 ------- 0 0.0 3.0 28 28
r 0.306029 2 3 cbr 210 ------- 0 0.0 3.0 28 28
+ 0.30875 0 1 cbr 210 ------- 0 0.0 3.0 29 29
- 0.30875 0 1 cbr 210 ------- 0 0.0 3.0 29 29
r 0.308771 0 1 cbr 210 ------- 0 0.0 3.0 29 29
+ 0.308771 1 2 cbr 210 ------- 0 0.0 3.0 29 29
- 0.308771 1 2 cbr 210 ------- 0 0.0 3.0 29 29
r 0.308939 1 2 cbr 210 ------- 0 0.0 3.0 29 29
+ 0.308939 2 3 cbr 210 ------- 0 0.0 3.0 29 29
- 0.308939 2 3 cbr 210 ------- 0 0.0 3.0 29 29
r 0.309779 2 3 cbr 210 ------- 0 0.0 3.0 29 29
+ 0.3125 0 1 cbr 210 ------- 0 0.0 3.0 30 30
- 0.3125 0 1 cbr 210 ------- 0 0.0 3.0 30 30
r 0.312521 0 1 cbr 210 ------- 0 0.0 3.0 30 30
+ 0.312521 1 2 cbr 210 ------- 0 0.0 3.0 30 30
- 0.312521 1 2 cbr 210 ------- 0 0.0 3.0 30 30
r 0.312689 1 2 cbr 210 ------- 0 0.0 3.0 30 30
+ 0.312689 2 3 cbr 210 ------- 0 0.0 3.0 30 30
- 0.312689 2 3 cbr 210 ------- 0 0.0 3.0 30 30
r 0.313529 2 3 cbr 210 ------- 0 0.0 3.0 30 30
+ 0.31625 0 1 cbr 210 ------- 0 0.0 3.0 31 31
- 0.31625 0 1 cbr 210 ------- 0 0.0 3.0 31 31
r 0.316271 0 1 cbr 210 ------- 0 0.0 3.0 31 31
+ 0.316271 1 2 cbr 210 ------- 0 0.0 3.0 31 31
- 0.316271 1 2 cbr 210 ------- 0 0.0 3.0 31 31
r 0.316439 1 2 cbr 210 ------- 0 0.0 3.0 31 31
+ 0.316439 2 3 cbr 210 ------- 0 0.0 3.0 31 31
- 0.316439 2 3 cbr 210 ------- 0 0.0 3.0 31 31
r 0.317279 2 3 cbr 210 ------- 0 0.0 3.0 31 31
+ 0.32 0 1 cbr 210 ------- 0 0.0 3.0 32 32
- 0.32 0 1 cbr 210 ------- 0 0.0 3.0 32 32
r 0.320021 0 1 cbr 210 ------- 0 0.0 3.0 32 32
+ 0.320021 1 2 cbr 210 ------- 0 0.0 3.0 32 32
- 0.320021 1 2 cbr 210 ------- 0 0.0 3.0 32 32
r 0.320189 1 2 cbr 210 ------- 0 0.0 3.0 32 32
+ 0.320189 2 3 cbr 210 ------- 0 0.0 3.0 32 32
- 0.320189 2 3 cbr 210 ------- 0 0.0 3.0 32 32
r 0.321029 2 3 cbr 210 ------- 0 0.0 3.0 32 32
+ 0.32375 0 1 cbr 210 ------- 0 0.0 3.0 33 33
- 0.32375 0 1 cbr 210 ------- 0 0.0 3.0 33 33
r 0.323771 0 1 cbr 210 ------- 0 0.0 3.0 33 33
+ 0.323771 1 2 cbr 210 ------- 0 0.0 3.0 33 33
- 0.323771 1 2 cbr 210 ------- 0 0.0 3.0 33 33
r 0.323939 1 2 cbr 210 ------- 0 0.0 3.0 33 33
+ 0.323939 2 3 cbr 210 ------- 0 0.0 3.0 33 33
- 0.323939 2 3 cbr 210 ------- 0 0.0 3.0 33 33
r 0.324779 2 3 cbr 210 ------- 0 0.0 3.0 33 33
+ 0.3275 0 1 cbr 210 ------- 0 0.0 3.0 34 34
- 0.3275 0 1 cbr 210 ------- 0 0.0 3.0 34 34
r 0.327521 0 1 cbr 210 ------- 0 0.0 3.0 34 34
+ 0.327521 1 2 cbr 210 ------- 0 0.0 3.0 34 34
- 0.327521 1 2 cbr 210 ------- 0 0.0 3.0 34 34
r 0.327689 1 2 cbr 210 ------- 0 0.0 3.0 34 34
+ 0.327689 2 3 cbr 210 ------- 0 0.0 3.0 34 34
- 0.327689 2 3 cbr 210 ------- 0 0.0 3.0 34 34
r 0.328529 2 3 cbr 210 ------- 0 0.0 3.0 34 34
+ 0.33125 0 1 cbr 210 ------- 0 0.0 3.0 35 35
- 0.33125 0 1 cbr 210 ------- 0 0.0 3.0 35 35
r 0.331271 0 1 cbr 210 ------- 0 0.0 3.0 35 35
+ 0.331271 1 2 cbr 210 ------- 0 0.0 3.0 35 35
- 0.331271 1 2 cbr 210 ------- 0 0.0 3.0 35 35
r 0.331439 1 2 cbr 210 ------- 0 0.0 3.0 35 35
+ 0.331439 2 3 cbr 210 ------- 0 0.0 3.0 35 35
- 0.331439 2 3 cbr 210 ------- 0 0.0 3.0 35 35
r 0.332279 2 3 cbr 210 ------- 0 0.0 3.0 35 35
+ 0.335 0 1 cbr 210 ------- 0 0.0 3.0 36 36
- 0.335 0 1 cbr 210 ------- 0 0.0 3.0 36 36
r 0.335021 0 1 cbr 210 ------- 0 0.0 3.0 36 36
+ 0.335021 1 2 cbr 210 ------- 0 0.0 3.0 36 36
- 0.335021 1 2 cbr 210 ------- 0 0.0 3.0 36 36
r 0.335189 1 2 cbr 210 ------- 0 0.0 3.0 36 36
+ 0.335189 2 3 cbr 210 ------- 0 0.0 3.0 36 36
- 0.335189 2 3 cbr 210 ------- 0 0.0 3.0 36 36
r 0.336029 2 3 cbr 210 ------- 0 0.0 3.0 36 36
+ 0.33875 0 1 cbr 210 ------- 0 0.0 3.0 37 37
- 0.33875 0 1 cbr 210 ------- 0 0.0 3.0 37 37
r 0.338771 0 1 cbr 210 ------- 0 0.0 3.0 37 37
+ 0.338771 1 2 cbr 210 ------- 0 0.0 3.0 37 37
- 0.338771 1 2 cbr 210 ------- 0 0.0 3.0 37 37
r 0.338939 1 2 cbr 210 ------- 0 0.0 3.0 37 37
+ 0.338939 2 3 cbr 210 ------- 0 0.0 3.0 37 37
- 0.338939 2 3 cbr 210 ------- 0 0.0 3.0 37 37
r 0.339779 2 3 cbr 210 ------- 0 0.0 3.0 37 37
+ 0.3425 0 1 cbr 210 ------- 0 0.0 3.0 38 38
- 0.3425 0 1 cbr 210 ------- 0 0.0 3.0 38 38
r 0.342521 0 1 cbr 210 ------- 0 0.0 3.0 38 38
+ 0.342521 1 2 cbr 210 ------- 0 0.0 3.0 38 38
- 0.342521 1 2 cbr 210 ------- 0 0.0 3.0 38 38
r 0.342689 1 2 cbr 210 ------- 0 0.0 3.0 38 38
+ 0.342689 2 3 cbr 210 ------- 0 0.0 3.0 38 38
- 0.342689 2 3 cbr 210 ------- 0 0.0 3.0 38 38
r 0.343529 2 3 cbr 210 ------- 0 0.0 3.0 38 38
+ 0.34625 0 1 cbr 210 ------- 0 0.0 3.0 39 39
- 0.34625 0 1 cbr 210 ------- 0 0.0 3.0 39 39
r 0.346271 0 1 cbr 210 ------- 0 0.0 3.0 39 39
+ 0.346271 1 2 cbr 210 ------- 0 0.0 3.0 39 39
- 0.346271 1 2 cbr 210 ------- 0 0.0 3.0 39 39
r 0.346439 1 2 cbr 210 ------- 0 0.0 3.0 39 39
+ 0.346439 2 3 cbr 210 ------- 0 0.0 3.0 39 39
- 0.346439 2 3 cbr 210 ------- 0 0.0 3.0 39 39
r 0.347279 2 3 cbr 210 ------- 0 0.0 3.0 39 39
+ 0.35 0 1 cbr 210 ------- 0 0.0 3.0 40 40
- 0.35 0 1 cbr 210 ------- 0 0.0 3.0 40 40
r 0.350021 0 1 cbr 210 ------- 0 0.0 3.0 40 40
+ 0.350021 1 2 cbr 210 ------- 0 0.0 3.0 40 40
- 0.350021 1 2 cbr 210 ------- 0 0.0 3.0 40 40
r 0.350189 1 2 cbr 210 ------- 0 0.0 3.0 40 40
+ 0.350189 2 3 cbr 210 ------- 0 0.0 3.0 40 40
- 0.350189 2 3 cbr 210 ------- 0 0.0 3.0 40 40
r 0.351029 2 3 cbr 210 ------- 0 0.0 3.0 40 40
+ 0.35375 0 1 cbr 210 ------- 0 0.0 3.0 41 41
- 0.35375 0 1 cbr 210 ------- 0 0.0 3.0 41 41
r 0.353771 0 1 cbr 210 ------- 0 0.0 3.0 41 41
+ 0.353771 1 2 cbr 210 ------- 0 0.0 3.0 41 41
- 0.353771 1 2 cbr 210 ------- 0 0.0 3.0 41 41
r 0.353939 1 2 cbr 210 ------- 0 0.0 3.0 41 41
+ 0.353939 2 3 cbr 210 ------- 0 0.0 3.0 41 41
- 0.353939 2 3 cbr 210 ------- 0 0.0 3.0 41 41
r 0.354779 2 3 cbr 210 ------- 0 0.0 3.0 41 41
+ 0.3575 0 1 cbr 210 ------- 0 0.0 3.0 42 42
- 0.3575 0 1 cbr 210 ------- 0 0.0 3.0 42 42
r 0.357521 0 1 cbr 210 ------- 0 0.0 3.0 42 42
+ 0.357521 1 2 cbr 210 ------- 0 0.0 3.0 42 42
- 0.357521 1 2 cbr 210 ------- 0 0.0 3.0 42 42
r 0.357689 1 2 cbr 210 ------- 0 0.0 3.0 42 42
+ 0.357689 2 3 cbr 210 ------- 0 0.0 3.0 42 42
- 0.357689 2 3 cbr 210 ------- 0 0.0 3.0 42 42
r 0.358529 2 3 cbr 210 ------- 0 0.0 3.0 42 42
+ 0.36125 0 1 cbr 210 ------- 0 0.0 3.0 43 43
- 0.36125 0 1 cbr 210 ------- 0 0.0 3.0 43 43
r 0.361271 0 1 cbr 210 ------- 0 0.0 3.0 43 43
+ 0.361271 1 2 cbr 210 ------- 0 0.0 3.0 43 43
- 0.361271 1 2 cbr 210 ------- 0 0.0 3.0 43 43
r 0.361439 1 2 cbr 210 ------- 0 0.0 3.0 43 43
+ 0.361439 2 3 cbr 210 ------- 0 0.0 3.0 43 43
- 0.361439 2 3 cbr 210 ------- 0 0.0 3.0 43 43
r 0.362279 2 3 cbr 210 ------- 0 0.0 3.0 43 43
+ 0.365 0 1 cbr 210 ------- 0 0.0 3.0 44 44
- 0.365 0 1 cbr 210 ------- 0 0.0 3.0 44 44
r 0.365021 0 1 cbr 210 ------- 0 0.0 3.0 44 44
+ 0.365021 1 2 cbr 210 ------- 0 0.0 3.0 44 44
- 0.365021 1 2 cbr 210 ------- 0 0.0 3.0 44 44
r 0.365189 1 2 cbr 210 ------- 0 0.0 3.0 44 44
+ 0.365189 2 3 cbr 210 ------- 0 0.0 3.0 44 44
- 0.365189 2 3 cbr 210 ------- 0 0.0 3.0 44 44
r 0.366029 2 3 cbr 210 ------- 0 0.0 3.0 44 44
+ 0.36875 0 1 cbr 210 ------- 0 0.0 3.0 45 45
- 0.36875 0 1 cbr 210 ------- 0 0.0 3.0 45 45
r 0.368771 0 1 cbr 210 ------- 0 0.0 3.0 45 45
+ 0.368771 1 2 cbr 210 ------- 0 0.0 3.0 45 45
- 0.368771 1 2 cbr 210 ------- 0 0.0 3.0 45 45
r 0.368939 1 2 cbr 210 ------- 0 0.0 3.0 45 45
+ 0.368939 2 3 cbr 210 ------- 0 0.0 3.0 45 45
- 0.368939 2 3 cbr 210 ------- 0 0.0 3.0 45 45
r 0.369779 2 3 cbr 210 ------- 0 0.0 3.0 45 45
+ 0.3725 0 1 cbr 210 ------- 0 0.0 3.0 46 46
- 0.3725 0 1 cbr 210 ------- 0 0.0 3.0 46 46
r 0.372521 0 1 cbr 210 ------- 0 0.0 3.0 46 46
+ 0.372521 1 2 cbr 210 ------- 0 0.0 3.0 46 46
- 0.372521 1 2 cbr 210 ------- 0 0.0 3.0 46 46
r 0.372689 1 2 cbr 210 ------- 0 0.0 3.0 46 46
+ 0.372689 2 3 cbr 210 ------- 0 0.0 3.0 46 46
- 0.372689 2 3 cbr 210 ------- 0 0.0 3.0 46 46
r 0.373529 2 3 cbr 210 ------- 0 0.0 3.0 46 46
+ 0.37625 0 1 cbr 210 ------- 0 0.0 3.0 47 47
- 0.37625 0 1 cbr 210 ------- 0 0.0 3.0 47 47
r 0.376271 0 1 cbr 210 ------- 0 0.0 3.0 47 47
+ 0.376271 1 2 cbr 210 ------- 0 0.0 3.0 47 47
- 0.376271 1 2 cbr 210 ------- 0 0.0 3.0 47 47
r 0.376439 1 2 cbr 210 ------- 0 0.0 3.0 47 47
+ 0.376439 2 3 cbr 210 ------- 0 0.0 3.0 47 47
- 0.376439 2 3 cbr 210 ------- 0 0.0 3.0 47 47
r 0.377279 2 3 cbr 210 ------- 0 0.0 3.0 47 47
+ 0.38 0 1 cbr 210 ------- 0 0.0 3.0 48 48
- 0.38 0 1 cbr 210 ------- 0 0.0 3.0 48 48
r 0.380021 0 1 cbr 210 ------- 0 0.0 3.0 48 48
+ 0.380021 1 2 cbr 210 ------- 0 0.0 3.0 48 48
- 0.380021 1 2 cbr 210 ------- 0 0.0 3.0 48 48
r 0.380189 1 2 cbr 210 ------- 0 0.0 3.0 48 48
+ 0.380189 2 3 cbr 210 ------- 0 0.0 3.0 48 48
- 0.380189 2 3 cbr 210 ------- 0 0.0 3.0 48 48
r 0.381029 2 3 cbr 210 ------- 0 0.0 3.0 48 48
+ 0.38375 0 1 cbr 210 ------- 0 0.0 3.0 49 49
- 0.38375 0 1 cbr 210 ------- 0 0.0 3.0 49 49
r 0.383771 0 1 cbr 210 ------- 0 0.0 3.0 49 49
+ 0.383771 1 2 cbr 210 ------- 0 0.0 3.0 49 49
- 0.383771 1 2 cbr 210 ------- 0 0.0 3.0 49 49
r 0.383939 1 2 cbr 210 ------- 0 0.0 3.0 49 49
+ 0.383939 2 3 cbr 210 ------- 0 0.0 3.0 49 49
- 0.383939 2 3 cbr 210 ------- 0 0.0 3.0 49 49
r 0.384779 2 3 cbr 210 ------- 0 0.0 3.0 49 49
+ 0.3875 0 1 cbr 210 ------- 0 0.0 3.0 50 50
- 0.3875 0 1 cbr 210 ------- 0 0.0 3.0 50 50
r 0.387521 0 1 cbr 210 ------- 0 0.0 3.0 50 50
+ 0.387521 1 2 cbr 210 ------- 0 0.0 3.0 50 50
- 0.387521 1 2 cbr 210 ------- 0 0.0 3.0 50 50
r 0.387689 1 2 cbr 210 ------- 0 0.0 3.0 50 50
+ 0.387689 2 3 cbr 210 ------- 0 0.0 3.0 50 50
- 0.387689 2 3 cbr 210 ------- 0 0.0 3.0 50 50
r 0.388529 2 3 cbr 210 ------- 0 0.0 3.0 50 50
+ 0.39125 0 1 cbr 210 ------- 0 0.0 3.0 51 51
- 0.39125 0 1 cbr 210 ------- 0 0.0 3.0 51 51
r 0.391271 0 1 cbr 210 ------- 0 0.0 3.0 51 51
+ 0.391271 1 2 cbr 210 ------- 0 0.0 3.0 51 51
- 0.391271 1 2 cbr 210 ------- 0 0.0 3.0 51 51
r 0.391439 1 2 cbr 210 ------- 0 0.0 3.0 51 51
+ 0.391439 2 3 cbr 210 ------- 0 0.0 3.0 51 51
- 0.391439 2 3 cbr 210 ------- 0 0.0 3.0 51 51
r 0.392279 2 3 cbr 210 ------- 0 0.0 3.0 51 51
+ 0.395 0 1 cbr 210 ------- 0 0.0 3.0 52 52
- 0.395 0 1 cbr 210 ------- 0 0.0 3.0 52 52
r 0.395021 0 1 cbr 210 ------- 0 0.0 3.0 52 52
+ 0.395021 1 2 cbr 210 ------- 0 0.0 3.0 52 52
- 0.395021 1 2 cbr 210 ------- 0 0.0 3.0 52 52
r 0.395189 1 2 cbr 210 ------- 0 0.0 3.0 52 52
+ 0.395189 2 3 cbr 210 ------- 0 0.0 3.0 52 52
- 0.395189 2 3 cbr 210 ------- 0 0.0 3.0 52 52
r 0.396029 2 3 cbr 210 ------- 0 0.0 3.0 52 52
+ 0.39875 0 1 cbr 210 ------- 0 0.0 3.0 53 53
- 0.39875 0 1 cbr 210 ------- 0 0.0 3.0 53 53
r 0.398771 0 1 cbr 210 ------- 0 0.0 3.0 53 53
+ 0.398771 1 2 cbr 210 ------- 0 0.0 3.0 53 53
- 0.398771 1 2 cbr 210 ------- 0 0.0 3.0 53 53
r 0.398939 1 2 cbr 210 ------- 0 0.0 3.0 53 53
+ 0.398939 2 3 cbr 210 ------- 0 0.0 3.0 53 53
- 0.398939 2 3 cbr 210 ------- 0 0.0 3.0 53 53
r 0.399779 2 3 cbr 210 ------- 0 0.0 3.0 53 53
+ 0.4025 0 1 cbr 210 ------- 0 0.0 3.0 54 54
- 0.4025 0 1 cbr 210 ------- 0 0.0 3.0 54 54
r 0.402521 0 1 cbr 210 ------- 0 0.0 3.0 54 54
+ 0.402521 1 2 cbr 210 ------- 0 0.0 3.0 54 54
- 0.402521 1 2 cbr 210 ------- 0 0.0 3.0 54 54
r 0.402689 1 2 cbr 210 ------- 0 0.0 3.0 54 54
+ 0.402689 2 3 cbr 210 ------- 0 0.0 3.0 54 54
- 0.402689 2 3 cbr 210 ------- 0 0.0 3.0 54 54
r 0.403529 2 3 cbr 210 ------- 0 0.0 3.0 54 54
+ 0.40625 0 1 cbr 210 ------- 0 0.0 3.0 55 55
- 0.40625 0 1 cbr 210 ------- 0 0.0 3.0 55 55
r 0.406271 0 1 cbr 210 ------- 0 0.0 3.0 55 55
+ 0.406271 1 2 cbr 210 ------- 0 0.0 3.0 55 55
- 0.406271 1 2 cbr 210 ------- 0 0.0 3.0 55 55
r 0.406439 1 2 cbr 210 ------- 0 0.0 3.0 55 55
+ 0.406439 2 3 cbr 210 ------- 0 0.0 3.0 55 55
- 0.406439 2 3 cbr 210 ------- 0 0.0 3.0 55 55
r 0.407279 2 3 cbr 210 ------- 0 0.0 3.0 55 55
+ 0.41 0 1 cbr 210 ------- 0 0.0 3.0 56 56
- 0.41 0 1 cbr 210 ------- 0 0.0 3.0 56 56
r 0.410021 0 1 cbr 210 ------- 0 0.0 3.0 56 56
+ 0.410021 1 2 cbr 210 ------- 0 0.0 3.0 56 56
- 0.410021 1 2 cbr 210 ------- 0 0.0 3.0 56 56
r 0.410189 1 2 cbr 210 ------- 0 0.0 3.0 56 56
+ 0.410189 2 3 cbr 210 ------- 0 0.0 3.0 56 56
- 0.410189 2 3 cbr 210 ------- 0 0.0 3.0 56 56
r 0.411029 2 3 cbr 210 ------- 0 0.0 3.0 56 56
+ 0.41375 0 1 cbr 210 ------- 0 0.0 3.0 57 57
- 0.41375 0 1 cbr 210 ------- 0 0.0 3.0 57 57
r 0.413771 0 1 cbr 210 ------- 0 0.0 3.0 57 57
+ 0.413771 1 2 cbr 210 ------- 0 0.0 3.0 57 57
- 0.413771 1 2 cbr 210 ------- 0 0.0 3.0 57 57
r 0.413939 1 2 cbr 210 ------- 0 0.0 3.0 57 57
+ 0.413939 2 3 cbr 210 ------- 0 0.0 3.0 57 57
- 0.413939 2 3 cbr 210 ------- 0 0.0 3.0 57 57
r 0.414779 2 3 cbr 210 ------- 0 0.0 3.0 57 57
+ 0.4175 0 1 cbr 210 ------- 0 0.0 3.0 58 58
- 0.4175 0 1 cbr 210 ------- 0 0.0 3.0 58 58
r 0.417521 0 1 cbr 210 ------- 0 0.0 3.0 58 58
+ 0.417521 1 2 cbr 210 ------- 0 0.0 3.0 58 58
- 0.417521 1 2 cbr 210 ------- 0 0.0 3.0 58 58
r 0.417689 1 2 cbr 210 ------- 0 0.0 3.0 58 58
+ 0.417689 2 3 cbr 210 ------- 0 0.0 3.0 58 58
- 0.417689 2 3 cbr 210 ------- 0 0.0 3.0 58 58
r 0.418529 2 3 cbr 210 ------- 0 0.0 3.0 58 58
+ 0.42125 0 1 cbr 210 ------- 0 0.0 3.0 59 59
- 0.42125 0 1 cbr 210 ------- 0 0.0 3.0 59 59
r 0.421271 0 1 cbr 210 ------- 0 0.0 3.0 59 59
+ 0.421271 1 2 cbr 210 ------- 0 0.0 3.0 59 59
- 0.421271 1 2 cbr 210 ------- 0 0.0 3.0 59 59
r 0.421439 1 2 cbr 210 ------- 0 0.0 3.0 59 59
+ 0.421439 2 3 cbr 210 ------- 0 0.0 3.0 59 59
- 0.421439 2 3 cbr 210 ------- 0 0.0 3.0 59 59
r 0.422279 2 3 cbr 210 ------- 0 0.0 3.0 59 59
+ 0.425 0 1 cbr 210 ------- 0 0.0 3.0 60 60
- 0.425 0 1 cbr 210 ------- 0 0.0 3.0 60 60
r 0.425021 0 1 cbr 210 ------- 0 0.0 3.0 60 60
+ 0.425021 1 2 cbr 210 ------- 0 0.0 3.0 60 60
- 0.425021 1 2 cbr 210 ------- 0 0.0 3.0 60 60
r 0.425189 1 2 cbr 210 ------- 0 0.0 3.0 60 60
+ 0.425189 2 3 cbr 210 ------- 0 0.0 3.0 60 60
- 0.425189 2 3 cbr 210 ------- 0 0.0 3.0 60 60
r 0.426029 2 3 cbr 210 ------- 0 0.0 3.0 60 60
+ 0.42875 0 1 cbr 210 ------- 0 0.0 3.0 61 61
- 0.42875 0 1 cbr 210 ------- 0 0.0 3.0 61 61
r 0.428771 0 1 cbr 210 ------- 0 0.0 3.0 61 61
+ 0.428771 1 2 cbr 210 ------- 0 0.0 3.0 61 61
- 0.428771 1 2 cbr 210 ------- 0 0.0 3.0 61 61
r 0.428939 1 2 cbr 210 ------- 0 0.0 3.0 61 61
+ 0.428939 2 3 cbr 210 ------- 0 0.0 3.0 61 61
- 0.428939 2 3 cbr 210 ------- 0 0.0 3.0 61 61
r 0.429779 2 3 cbr 210 ------- 0 0.0 3.0 61 61
+ 0.4325 0 1 cbr 210 ------- 0 0.0 3.0 62 62
- 0.4325 0 1 cbr 210 ------- 0 0.0 3.0 62 62
r 0.432521 0 1 cbr 210 ------- 0 0.0 3.0 62 62
+ 0.432521 1 2 cbr 210 ------- 0 0.0 3.0 62 62
- 0.432521 1 2 cbr 210 ------- 0 0.0 3.0 62 62
r 0.432689 1 2 cbr 210 ------- 0 0.0 3.0 62 62
+ 0.432689 2 3 cbr 210 ------- 0 0.0 3.0 62 62
- 0.432689 2 3 cbr 210 ------- 0 0.0 3.0 62 62
r 0.433529 2 3 cbr 210 ------- 0 0.0 3.0 62 62
+ 0.43625 0 1 cbr 210 ------- 0 0.0 3.0 63 63
- 0.43625 0 1 cbr 210 ------- 0 0.0 3.0 63 63
r 0.436271 0 1 cbr 210 ------- 0 0.0 3.0 63 63
+ 0.436271 1 2 cbr 210 ------- 0 0.0 3.0 63 63
- 0.436271 1 2 cbr 210 ------- 0 0.0 3.0 63 63
r 0.436439 1 2 cbr 210 ------- 0 0.0 3.0 63 63
+ 0.436439 2 3 cbr 210 ------- 0 0.0 3.0 63 63
- 0.436439 2 3 cbr 210 ------- 0 0.0 3.0 63 63
r 0.437279 2 3 cbr 210 ------- 0 0.0 3.0 63 63
+ 0.44 0 1 cbr 210 ------- 0 0.0 3.0 64 64
- 0.44 0 1 cbr 210 ------- 0 0.0 3.0 64 64
r 0.440021 0 1 cbr 210 ------- 0 0.0 3.0 64 64
+ 0.440021 1 2 cbr 210 ------- 0 0.0 3.0 64 64
- 0.440021 1 2 cbr 210 ------- 0 0.0 3.0 64 64
r 0.440189 1 2 cbr 210 ------- 0 0.0 3.0 64 64
+ 0.440189 2 3 cbr 210 ------- 0 0.0 3.0 64 64
- 0.440189 2 3 cbr 210 ------- 0 0.0 3.0 64 64
r 0.441029 2 3 cbr 210 ------- 0 0.0 3.0 64 64
+ 0.44375 0 1 cbr 210 ------- 0 0.0 3.0 65 65
- 0.44375 0 1 cbr 210 ------- 0 0.0 3.0 65 65
r 0.443771 0 1 cbr 210 ------- 0 0.0 3.0 65 65
+ 0.443771 1 2 cbr 210 ------- 0 0.0 3.0 65 65
- 0.443771 1 2 cbr 210 ------- 0 0.0 3.0 65 65
r 0.443939 1 2 cbr 210 ------- 0 0.0 3.0 65 65
+ 0.443939 2 3 cbr 210 ------- 0 0.0 3.0 65 65
- 0.443939 2 3 cbr 210 ------- 0 0.0 3.0 65 65
r 0.444779 2 3 cbr 210 ------- 0 0.0 3.0 65 65
+ 0.4475 0 1 cbr 210 ------- 0 0.0 3.0 66 66
- 0.4475 0 1 cbr 210 ------- 0 0.0 3.0 66 66
r 0.447521 0 1 cbr 210 ------- 0 0.0 3.0 66 66
+ 0.447521 1 2 cbr 210 ------- 0 0.0 3.0 66 66
- 0.447521 1 2 cbr 210 ------- 0 0.0 3.0 66 66
r 0.447689 1 2 cbr 210 ------- 0 0.0 3.0 66 66
+ 0.447689 2 3 cbr 210 ------- 0 0.0 3.0 66 66
- 0.447689 2 3 cbr 210 ------- 0 0.0 3.0 66 66
r 0.448529 2 3 cbr 210 ------- 0 0.0 3.0 66 66
+ 0.45125 0 1 cbr 210 ------- 0 0.0 3.0 67 67
- 0.45125 0 1 cbr 210 ------- 0 0.0 3.0 67 67
r 0.451271 0 1 cbr 210 ------- 0 0.0 3.0 67 67
+ 0.451271 1 2 cbr 210 ------- 0 0.0 3.0 67 67
- 0.451271 1 2 cbr 210 ------- 0 0.0 3.0 67 67
r 0.451439 1 2 cbr 210 ------- 0 0.0 3.0 67 67
+ 0.451439 2 3 cbr 210 ------- 0 0.0 3.0 67 67
- 0.451439 2 3 cbr 210 ------- 0 0.0 3.0 67 67
r 0.452279 2 3 cbr 210 ------- 0 0.0 3.0 67 67
+ 0.455 0 1 cbr 210 ------- 0 0.0 3.0 68 68
- 0.455 0 1 cbr 210 ------- 0 0.0 3.0 68 68
r 0.455021 0 1 cbr 210 ------- 0 0.0 3.0 68 68
+ 0.455021 1 2 cbr 210 ------- 0 0.0 3.0 68 68
- 0.455021 1 2 cbr 210 ------- 0 0.0 3.0 68 68
r 0.455189 1 2 cbr 210 ------- 0 0.0 3.0 68 68
+ 0.455189 2 3 cbr 210 ------- 0 0.0 3.0 68 68
- 0.455189 2 3 cbr 210 ------- 0 0.0 3.0 68 68
r 0.456029 2 3 cbr 210 ------- 0 0.0 3.0 68 68
+ 0.45875 0 1 cbr 210 ------- 0 0.0 3.0 69 69
- 0.45875 0 1 cbr 210 ------- 0 0.0 3.0 69 69
r 0.458771 0 1 cbr 210 ------- 0 0.0 3.0 69 69
+ 0.458771 1 2 cbr 210 ------- 0 0.0 3.0 69 69
- 0.458771 1 2 cbr 210 ------- 0 0.0 3.0 69 69
r 0.458939 1 2 cbr 210 ------- 0 0.0 3.0 69 69
+ 0.458939 2 3 cbr 210 ------- 0 0.0 3.0 69 69
- 0.458939 2 3 cbr 210 ------- 0 0.0 3.0 69 69
r 0.459779 2 3 cbr 210 ------- 0 0.0 3.0 69 69
+ 0.4625 0 1 cbr 210 ------- 0 0.0 3.0 70 70
- 0.4625 0 1 cbr 210 ------- 0 0.0 3.0 70 70
r 0.462521 0 1 cbr 210 ------- 0 0.0 3.0 70 70
+ 0.462521 1 2 cbr 210 ------- 0 0.0 3.0 70 70
- 0.462521 1 2 cbr 210 ------- 0 0.0 3.0 70 70
r 0.462689 1 2 cbr 210 ------- 0 0.0 3.0 70 70
+ 0.462689 2 3 cbr 210 ------- 0 0.0 3.0 70 70
- 0.462689 2 3 cbr 210 ------- 0 0.0 3.0 70 70
r 0.463529 2 3 cbr 210 ------- 0 0.0 3.0 70 70
+ 0.46625 0 1 cbr 210 ------- 0 0.0 3.0 71 71
- 0.46625 0 1 cbr 210 ------- 0 0.0 3.0 71 71
r 0.466271 0 1 cbr 210 ------- 0 0.0 3.0 71 71
+ 0.466271 1 2 cbr 210 ------- 0 0.0 3.0 71 71
- 0.466271 1 2 cbr 210 ------- 0 0.0 3.0 71 71
r 0.466439 1 2 cbr 210 ------- 0 0.0 3.0 71 71
+ 0.466439 2 3 cbr 210 ------- 0 0.0 3.0 71 71
- 0.466439 2 3 cbr 210 ------- 0 0.0 3.0 71 71