n -t 0 -s 0 -S DLABEL -l "TCP Source" -L ""
n -t 0 -s 3 -S DLABEL -l "TCP Sink" -L ""
V -t * -v 1.0a5 -a 0
A -t * -n 1 -p 0 -o 0x7fffffff -c 30 -a 1
A -t * -h 1 -m 1073741823 -s 0
n -t * -a 0 -s 0 -S UP -v circle -c black -i black
n -t * -a 1 -s 1 -S UP -v circle -c black -i black
n -t * -a 2 -s 2 -S UP -v circle -c black -i black
n -t * -a 3 -s 3 -S UP -v circle -c black -i black
l -t * -s 0 -d 1 -S UP -r 80000000 -D 1.0000000000000001e-09 -c black
l -t * -s 1 -d 2 -S UP -r 10000000 -D 2.0000000000000001e-09 -c black
l -t * -s 2 -d 3 -S UP -r 2000000 -D 3.0000000000000004e-09 -c black
+ -t 0.2 -s 0 -d 1 -p cbr -e 210 -c 0 -i 0 -a 0 -x {0.0 3.0 0 ------- null}
- -t 0.2 -s 0 -d 1 -p cbr -e 210 -c 0 -i 0 -a 0 -x {0.0 3.0 0 ------- null}
h -t 0.2 -s 0 -d 1 -p cbr -e 210 -c 0 -i 0 -a 0 -x {0.0 3.0 -1 ------- null}
r -t 0.200021001 -s 0 -d 1 -p cbr -e 210 -c 0 -i 0 -a 0 -x {0.0 3.0 0 ------- null}
+ -t 0.200021001 -s 1 -d 2 -p cbr -e 210 -c 0 -i 0 -a 0 -x {0.0 3.0 0 ------- null}
- -t 0.200021001 -s 1 -d 2 -p cbr -e 210 -c 0 -i 0 -a 0 -x {0.0 3.0 0 ------- null}
h -t 0.200021001 -s 1 -d 2 -p cbr -e 210 -c 0 -i 0 -a 0 -x {0.0 3.0 -1 ------- null}
r -t 0.200189003 -s 1 -d 2 -p cbr -e 210 -c 0 -i 0 -a 0 -x {0.0 3.0 0 ------- null}
+ -t 0.200189003 -s 2 -d 3 -p cbr -e 210 -c 0 -i 0 -a 0 -x {0.0 3.0 0 ------- null}
- -t 0.200189003 -s 2 -d 3 -p cbr -e 210 -c 0 -i 0 -a 0 -x {0.0 3.0 0 ------- null}
h -t 0.200189003 -s 2 -d 3 -p cbr -e 210 -c 0 -i 0 -a 0 -x {0.0 3.0 -1 ------- null}
r -t 0.201029006 -s 2 -d 3 -p cbr -e 210 -c 0 -i 0 -a 0 -x {0.0 3.0 0 ------- null}
+ -t 0.20375 -s 0 -d 1 -p cbr -e 210 -c 0 -i 1 -a 0 -x {0.0 3.0 1 ------- null}
- -t 0.20375 -s 0 -d 1 -p cbr -e 210 -c 0 -i 1 -a 0 -x {0.0 3.0 1 ------- null}
h -t 0.20375 -s 0 -d 1 -p cbr -e 210 -c 0 -i 1 -a 0 -x {0.0 3.0 -1 ------- null}
r -t 0.203771001 -s 0 -d 1 -p cbr -e 210 -c 0 -i 1 -a 0 -x {0.0 3.0 1 ------- null}
+ -t 0.203771001 -s 1 -d 2 -p cbr -e 210 -c 0 -i 1 -a 0 -x {0.0 3.0 1 ------- null}
- -t 0.203771001 -s 1 -d 2 -p cbr -e 210 -c 0 -i 1 -a 0 -x {0.0 3.0 1 ------- null}
h -t 0.203771001 -s 1 -d 2 -p cbr -e 210 -c 0 -i 1 -a 0 -x {0.0 3.0 -1 ------- null}
r -t 0.203939003 -s 1 -d 2 -p cbr -e 210 -c 0 -i 1 -a 0 -x {0.0 3.0 1 ------- null}
+ -t 0.203939003 -s 2 -d 3 -p cbr -e 210 -c 0 -i 1 -a 0 -x {0.0 3.0 1 ------- null}
- -t 0.203939003 -s 2 -d 3 -p cbr -e 210 -c 0 -i 1 -a 0 -x {0.0 3.0 1 ------- null}
h -t 0.203939003 -s 2 -d 3 -p cbr -e 210 -c 0 -i 1 -a 0 -x {0.0 3.0 -1 ------- null}
r -t 0.204779006 -s 2 -d 3 -p cbr -e 210 -c 0 -i 1 -a 0 -x {0.0 3.0 1 ------- null}
+ -t 0.2075 -s 0 -d 1 -p cbr -e 210 -c 0 -i 2 -a 0 -x {0.0 3.0 2 ------- null}
- -t 0.2075 -s 0 -d 1 -p cbr -e 210 -c 0 -i 2 -a 0 -x {0.0 3.0 2 ------- null}
h -t 0.2075 -s 0 -d 1 -p cbr -e 210 -c 0 -i 2 -a 0 -x {0.0 3.0 -1 ------- null}
r -t 0.207521001 -s 0 -d 1 -p cbr -e 210 -c 0 -i 2 -a 0 -x {0.0 3.0 2 ------- null}
+ -t 0.207521001 -s 1 -d 2 -p cbr -e 210 -c 0 -i 2 -a 0 -x {0.0 3.0 2 ------- null}
- -t 0.207521001 -s 1 -d 2 -p cbr -e 210 -c 0 -i 2 -a 0 -x {0.0 3.0 2 ------- null}
h -t 0.207521001 -s 1 -d 2 -p cbr -e 210 -c 0 -i 2 -a 0 -x {0.0 3.0 -1 ------- null}
r -t 0.207689003 -s 1 -d 2 -p cbr -e 210 -c 0 -i 2 -a 0 -x {0.0 3.0 2 ------- null}
+ -t 0.207689003 -s 2 -d 3 -p cbr -e 210 -c 0 -i 2 -a 0 -x {0.0 3.0 2 ------- null}
- -t 0.207689003 -s 2 -d 3 -p cbr -e 210 -c 0 -i 2 -a 0 -x {0.0 3.0 2 ------- null}
h -t 0.207689003 -s 2 -d 3 -p cbr -e 210 -c 0 -i 2 -a 0 -x {0.0 3.0 -1 ------- null}
r -t 0.208529006 -s 2 -d 3 -p cbr -e 210 -c 0 -i 2 -a 0 -x {0.0 3.0 2 ------- null}
+ -t 0.21125 -s 0 -d 1 -p cbr -e 210 -c 0 -i 3 -a 0 -x {0.0 3.0 3 ------- null}
- -t 0.21125 -s 0 -d 1 -p cbr -e 210 -c 0 -i 3 -a 0 -x {0.0 3.0 3 ------- null}
h -t 0.21125 -s 0 -d 1 -p cbr -e 210 -c 0 -i 3 -a 0 -x {0.0 3.0 -1 ------- null}
r -t 0.211271001 -s 0 -d 1 -p cbr -e 210 -c 0 -i 3 -a 0 -x {0.0 3.0 3 ------- null}
+ -t 0.211271001 -s 1 -d 2 -p cbr -e 210 -c 0 -i 3 -a 0 -x {0.0 3.0 3 ------- null}
- -t 0.211271001 -s 1 -d 2 -p cbr -e 210 -c 0 -i 3 -a 0 -x {0.0 3.0 3 ------- null}
h -t 0.211271001 -s 1 -d 2 -p cbr -e 210 -c 0 -i 3 -a 0 -x {0.0 3.0 -1 ------- null}
r -t 0.211439003 -s 1 -d 2 -p cbr -e 210 -c 0 -i 3 -a 0 -x {0.0 3.0 3 ------- null}
+ -t 0.211439003 -s 2 -d 3 -p cbr -e 210 -c 0 -i 3 -a 0 -x {0.0 3.0 3 ------- null}
- -t 0.211439003 -s 2 -d 3 -p cbr -e 210 -c 0 -i 3 -a 0 -x {0.0 3.0 3 ------- null}
h -t 0.211439003 -s 2 -d 3 -p cbr -e 210 -c 0 -i 3 -a 0 -x {0.0 3.0 -1 ------- null}
r -t 0.212279006 -s 2 -d 3 -p cbr -e 210 -c 0 -i 3 -a 0 -x {0.0 3.0 3 ------- null}
+ -t 0.215 -s 0 -d 1 -p cbr -e 210 -c 0 -i 4 -a 0 -x {0.0 3.0 4 ------- null}
- -t 0.215 -s 0 -d 1 -p cbr -e 210 -c 0 -i 4 -a 0 -x {0.0 3.0 4 ------- null}
h -t 0.215 -s 0 -d 1 -p cbr -e 210 -c 0 -i 4 -a 0 -x {0.0 3.0 -1 ------- null}
r -t 0.215021001 -s 0 -d 1 -p cbr -e 210 -c 0 -i 4 -a 0 -x {0.0 3.0 4 ------- null}
+ -t 0.215021001 -s 1 -d 2 -p cbr -e 210 -c 0 -i 4 -a 0 -x {0.0 3.0 4 ------- null}
- -t 0.215021001 -s 1 -d 2 -p cbr -e 210 -c 0 -i 4 -a 0 -x {0.0 3.0 4 ------- null}
h -t 0.215021001 -s 1 -d 2 -p cbr -e 210 -c 0 -i 4 -a 0 -x {0.0 3.0 -1 ------- null}
r -t 0.215189003 -s 1 -d 2 -p cbr -e 210 -c 0 -i 4 -a 0 -x {0.0 3.0 4 ------- null}
+ -t 0.215189003 -s 2 -d 3 -p cbr -e 210 -c 0 -i 4 -a 0 -x {0.0 3.0 4 ------- null}
- -t 0.215189003 -s 2 -d 3 -p cbr -e 210 -c 0 -i 4 -a 0 -x {0.0 3.0 4 ------- null}
h -t 0.215189003 -s 2 -d 3 -p cbr -e 210 -c 0 -i 4 -a 0 -x {0.0 3.0 -1 ------- null}
r -t 0.216029006 -s 2 -d 3 -p cbr -e 210 -c 0 -i 4 -a 0 -x {0.0 3.0 4 ------- null}
+ -t 0.21875 -s 0 -d 1 -p cbr -e 210 -c 0 -i 5 -a 0 -x {0.0 3.0 5 ------- null}
- -t 0.21875 -s 0 -d 1 -p cbr -e 210 -c 0 -i 5 -a 0 -x {0.0 3.0 5 ------- null}
h -t 0.21875 -s 0 -d 1 -p cbr -e 210 -c 0 -i 5 -a 0 -x {0.0 3.0 -1 ------- null}
r -t 0.218771001 -s 0 -d 1 -p cbr -e 210 -c 0 -i 5 -a 0 -x {0.0 3.0 5 ------- null}
+ -t 0.218771001 -s 1 -d 2 -p cbr -e 210 -c 0 -i 5 -a 0 -x {0.0 3.0 5 ------- null}
- -t 0.218771001 -s 1 -d 2 -p cbr -e 210 -c 0 -i 5 -a 0 -x {0.0 3.0 5 ------- null}
h -t 0.218771001 -s 1 -d 2 -p cbr -e 210 -c 0 -i 5 -a 0 -x {0.0 3.0 -1 ------- null}
r -t 0.218939003 -s 1 -d 2 -p cbr -e 210 -c 0 -i 5 -a 0 -x {0.0 3.0 5 ------- null}
+ -t 0.218939003 -s 2 -d 3 -p cbr -e 210 -c 0 -i 5 -a 0 -x {0.0 3.0 5 ------- null}
- -t 0.218939003 -s 2 -d 3 -p cbr -e 210 -c 0 -i 5 -a 0 -x {0.0 3.0 5 ------- null}
h -t 0.218939003 -s 2 -d 3 -p cbr -e 210 -c 0 -i 5 -a 0 -x {0.0 3.0 -1 ------- null}
r -t 0.219779006 -s 2 -d 3 -p cbr -e 210 -c 0 -i 5 -a 0 -x {0.0 3.0 5 ------- null}
+ -t 0.2225 -s 0 -d 1 -p cbr -e 210 -c 0 -i 6 -a 0 -x {0.0 3.0 6 ------- null}
- -t 0.2225 -s 0 -d 1 -p cbr -e 210 -c 0 -i 6 -a 0 -x {0.0 3.0 6 ------- null}
h -t 0.2225 -s 0 -d 1 -p cbr -e 210 -c 0 -i 6 -a 0 -x {0.0 3.0 -1 ------- null}
r -t 0.222521001 -s 0 -d 1 -p cbr -e 210 -c 0 -i 6 -a 0 -x {0.0 3.0 6 ------- null}
+ -t 0.222521001 -s 1 -d 2 -p cbr -e 210 -c 0 -i 6 -a 0 -x {0.0 3.0 6 ------- null}
- -t 0.222521001 -s 1 -d 2 -p cbr -e 210 -c 0 -i 6 -a 0 -x {0.0 3.0 6 ------- null}
h -t 0.222521001 -s 1 -d 2 -p cbr -e 210 -c 0 -i 6 -a 0 -x {0.0 3.0 -1 ------- null}
r -t 0.222689003 -s 1 -d 2 -p cbr -e 210 -c 0 -i 6 -a 0 -x {0.0 3.0 6 ------- null}
+ -t 0.222689003 -s 2 -d 3 -p cbr -e 210 -c 0 -i 6 -a 0 -x {0.0 3.0 6 ------- null}
- -t 0.222689003 -s 2 -d 3 -p cbr -e 210 -c 0 -i 6 -a 0 -x {0.0 3.0 6 ------- null}
h -t 0.222689003 -s 2 -d 3 -p cbr -e 210 -c 0 -i 6 -a 0 -x {0.0 3.0 -1 ------- null}
r -t 0.223529006 -s 2 -d 3 -p cbr -e 210 -c 0 -i 6 -a 0 -x {0.0 3.0 6 ------- null}
+ -t 0.22625 -s 0 -d 1 -p cbr -e 210 -c 0 -i 7 -a 0 -x {0.0 3.0 7 ------- null}
- -t 0.22625 -s 0 -d 1 -p cbr -e 210 -c 0 -i 7 -a 0 -x {0.0 3.0 7 ------- null}
h -t 0.22625 -s 0 -d 1 -p cbr -e 210 -c 0 -i 7 -a 0 -x {0.0 3.0 -1 ------- null}
r -t 0.226271001 -s 0 -d 1 -p cbr -e 210 -c 0 -i 7 -a 0 -x {0.0 3.0 7 ------- null}
+ -t 0.226271001 -s 1 -d 2 -p cbr -e 210 -c 0 -i 7 -a 0 -x {0.0 3.0 7 ------- null}
- -t 0.226271001 -s 1 -d 2 -p cbr -e 210 -c 0 -i 7 -a 0 -x {0.0 3.0 7 ------- null}
h -t 0.226271001 -s 1 -d 2 -p cbr -e 210 -c 0 -i 7 -a 0 -x {0.0 3.0 -1 ------- null}
r -t 0.226439003 -s 1 -d 2 -p cbr -e 210 -c 0 -i 7 -a 0 -x {0.0 3.0 7 ------- null}
+ -t 0.226439003 -s 2 -d 3 -p cbr -e 210 -c 0 -i 7 -a 0 -x {0.0 3.0 7 ------- null}
- -t 0.226439003 -s 2 -d 3 -p cbr -e 210 -c 0 -i 7 -a 0 -x {0.0 3.0 7 ------- null}
h -t 0.226439003 -s 2 -d 3 -p cbr -e 210 -c 0 -i 7 -a 0 -x {0.0 3.0 -1 ------- null}
r -t 0.227279006 -s 2 -d 3 -p cbr -e 210 -c 0 -i 7 -a 0 -x {0.0 3.0 7 ------- null}
+ -t 0.23 -s 0 -d 1 -p cbr -e 210 -c 0 -i 8 -a 0 -x {0.0 3.0 8 ------- null}
- -t 0.23 -s 0 -d 1 -p cbr -e 210 -c 0 -i 8 -a 0 -x {0.0 3.0 8 ------- null}
h -t 0.23 -s 0 -d 1 -p cbr -e 210 -c 0 -i 8 -a 0 -x {0.0 3.0 -1 ------- null}
r -t 0.230021001 -s 0 -d 1 -p cbr -e 210 -c 0 -i 8 -a 0 -x {0.0 3.0 8 ------- null}
+ -t 0.230021001 -s 1 -d 2 -p cbr -e 210 -c 0 -i 8 -a 0 -x {0.0 3.0 8 ------- null}
- -t 0.230021001 -s 1 -d 2 -p cbr -e 210 -c 0 -i 8 -a 0 -x {0.0 3.0 8 ------- null}
h -t 0.230021001 -s 1 -d 2 -p cbr -e 210 -c 0 -i 8 -a 0 -x {0.0 3.0 -1 ------- null}
r -t 0.230189003 -s 1 -d 2 -p cbr -e 210 -c 0 -i 8 -a 0 -x {0.0 3.0 8 ------- null}
+ -t 0.230189003 -s 2 -d 3 -p cbr -e 210 -c 0 -i 8 -a 0 -x {0.0 3.0 8 ------- null}
- -t 0.230189003 -s 2 -d 3 -p cbr -e 210 -c 0 -i 8 -a 0 -x {0.0 3.0 8 ------- null}
h -t 0.230189003 -s 2 -d 3 -p cbr -e 210 -c 0 -i 8 -a 0 -x {0.0 3.0 -1 ------- null}
r -t 0.231029006 -s 2 -d 3 -p cbr -e 210 -c 0 -i 8 -a 0 -x {0.0 3.0 8 ------- null}
+ -t 0.23375 -s 0 -d 1 -p cbr -e 210 -c 0 -i 9 -a 0 -x {0.0 3.0 9 ------- null}
- -t 0.23375 -s 0 -d 1 -p cbr -e 210 -c 0 -i 9 -a 0 -x {0.0 3.0 9 ------- null}
h -t 0.23375 -s 0 -d 1 -p cbr -e 210 -c 0 -i 9 -a 0 -x {0.0 3.0 -1 ------- null}
r -t 0.233771001 -s 0 -d 1 -p cbr -e 210 -c 0 -i 9 -a 0 -x {0.0 3.0 9 ------- null}
+ -t 0.233771001 -s 1 -d 2 -p cbr -e 210 -c 0 -i 9 -a 0 -x {0.0 3.0 9 ------- null}
- -t 0.233771001 -s 1 -d 2 -p cbr -e 210 -c 0 -i 9 -a 0 -x {0.0 3.0 9 ------- null}
h -t 0.233771001 -s 1 -d 2 -p cbr -e 210 -c 0 -i 9 -a 0 -x {0.0 3.0 -1 ------- null}
r -t 0.233939003 -s 1 -d 2 -p cbr -e 210 -c 0 -i 9 -a 0 -x {0.0 3.0 9 ------- null}
+ -t 0.233939003 -s 2 -d 3 -p cbr -e 210 -c 0 -i 9 -a 0 -x {0.0 3.0 9 ------- null}
- -t 0.233939003 -s 2 -d 3 -p cbr -e 210 -c 0 -i 9 -a 0 -x {0.0 3.0 9 ------- null}
h -t 0.233939003 -s 2 -d 3 -p cbr -e 210 -c 0 -i 9 -a 0 -x {0.0 3.0 -1 ------- null}
r -t 0.234779006 -s 2 -d 3 -p cbr -e 210 -c 0 -i 9 -a 0 -x {0.0 3.0 9 ------- null}
+ -t 0.2375 -s 0 -d 1 -p cbr -e 210 -c 0 -i 10 -a 0 -x {0.0 3.0 10 ------- null}
- -t 0.2375 -s 0 -d 1 -p cbr -e 210 -c 0 -i 10 -a 0 -x {0.0 3.0 10 ------- null}
h -t 0.2375 -s 0 -d 1 -p cbr -e 210 -c 0 -i 10 -a 0 -x {0.0 3.0 -1 ------- null}
r -t 0.237521001 -s 0 -d 1 -p cbr -e 210 -c 0 -i 10 -a 0 -x {0.0 3.0 10 ------- null}
+ -t 0.237521001 -s 1 -d 2 -p cbr -e 210 -c 0 -i 10 -a 0 -x {0.0 3.0 10 ------- null}
- -t 0.237521001 -s 1 -d 2 -p cbr -e 210 -c 0 -i 10 -a 0 -x {0.0 3.0 10 ------- null}
h -t 0.237521001 -s 1 -d 2 -p cbr -e 210 -c 0 -i 10 -a 0 -x {0.0 3.0 -1 ------- null}
r -t 0.237689003 -s 1 -d 2 -p cbr -e 210 -c 0 -i 10 -a 0 -x {0.0 3.0 10 ------- null}
+ -t 0.237689003 -s 2 -d 3 -p cbr -e 210 -c 0 -i 10 -a 0 -x {0.0 3.0 10 ------- null}
- -t 0.237689003 -s 2 -d 3 -p cbr -e 210 -c 0 -i 10 -a 0 -x {0.0 3.0 10 ------- null}
h -t 0.237689003 -s 2 -d 3 -p cbr -e 210 -c 0 -i 10 -a 0 -x {0.0 3.0 -1 ------- null}
r -t 0.238529006 -s 2 -d 3 -p cbr -e 210 -c 0 -i 10 -a 0 -x {0.0 3.0 10 ------- null}
+ -t 0.24125 -s 0 -d 1 -p cbr -e 210 -c 0 -i 11 -a 0 -x {0.0 3.0 11 ------- null}
- -t 0.24125 -s 0 -d 1 -p cbr -e 210 -c 0 -i 11 -a 0 -x {0.0 3.0 11 ------- null}
h -t 0.24125 -s 0 -d 1 -p cbr -e 210 -c 0 -i 11 -a 0 -x {0.0 3.0 -1 ------- null}
r -t 0.241271001 -s 0 -d 1 -p cbr -e 210 -c 0 -i 11 -a 0 -x {0.0 3.0 11 ------- null}
+ -t 0.241271001 -s 1 -d 2 -p cbr -e 210 -c 0 -i 11 -a 0 -x {0.0 3.0 11 ------- null}
- -t 0.241271001 -s 1 -d 2 -p cbr -e 210 -c 0 -i 11 -a 0 -x {0.0 3.0 11 ------- null}
h -t 0.241271001 -s 1 -d 2 -p cbr -e 210 -c 0 -i 11 -a 0 -x {0.0 3.0 -1 ------- null}
r -t 0.241439003 -s 1 -d 2 -p cbr -e 210 -c 0 -i 11 -a 0 -x {0.0 3.0 11 ------- null}
+ -t 0.241439003 -s 2 -d 3 -p cbr -e 210 -c 0 -i 11 -a 0 -x {0.0 3.0 11 ------- null}
- -t 0.241439003 -s 2 -d 3 -p cbr -e 210 -c 0 -i 11 -a 0 -x {0.0 3.0 11 ------- null}
h -t 0.241439003 -s 2 -d 3 -p cbr -e 210 -c 0 -i 11 -a 0 -x {0.0 3.0 -1 ------- null}
r -t 0.242279006 -s 2 -d 3 -p cbr -e 210 -c 0 -i 11 -a 0 -x {0.0 3.0 11 ------- null}
+ -t 0.245 -s 0 -d 1 -p cbr -e 210 -c 0 -i 12 -a 0 -x {0.0 3.0 12 ------- null}
- -t 0.245 -s 0 -d 1 -p cbr -e 210 -c 0 -i 12 -a 0 -x {0.0 3.0 12 ------- null}
h -t 0.245 -s 0 -d 1 -p cbr -e 210 -c 0 -i 12 -a 0 -x {0.0 3.0 -1 ------- null}
r -t 0.245021001 -s 0 -d 1 -p cbr -e 210 -c 0 -i 12 -a 0 -x {0.0 3.0 12 ------- null}
+ -t 0.245021001 -s 1 -d 2 -p cbr -e 210 -c 0 -i 12 -a 0 -x {0.0 3.0 12 ------- null}
- -t 0.245021001 -s 1 -d 2 -p cbr -e 210 -c 0 -i 12 -a 0 -x {0.0 3.0 12 ------- null}
h -t 0.245021001 -s 1 -d 2 -p cbr -e 210 -c 0 -i 12 -a 0 -x {0.0 3.0 -1 ------- null}
r -t 0.245189003 -s 1 -d 2 -p cbr -e 210 -c 0 -i 12 -a 0 -x {0.0 3.0 12 ------- null}
+ -t 0.245189003 -s 2 -d 3 -p cbr -e 210 -c 0 -i 12 -a 0 -x {0.0 3.0 12 ------- null}
- -t 0.245189003 -s 2 -d 3 -p cbr -e 210 -c 0 -i 12 -a 0 -x {0.0 3.0 12 ------- null}
h -t 0.245189003 -s 2 -d 3 -p cbr -e 210 -c 0 -i 12 -a 0 -x {0.0 3.0 -1 ------- null}
r -t 0.246029006 -s 2 -d 3 -p cbr -e 210 -c 0 -i 12 -a 0 -x {0.0 3.0 12 ------- null}
+ -t 0.24875 -s 0 -d 1 -p cbr -e 210 -c 0 -i 13 -a 0 -x {0.0 3.0 13 ------- null}
- -t 0.24875 -s 0 -d 1 -p cbr -e 210 -c 0 -i 13 -a 0 -x {0.0 3.0 13 ------- null}
h -t 0.24875 -s 0 -d 1 -p cbr -e 210 -c 0 -i 13 -a 0 -x {0.0 3.0 -1 ------- null}
r -t 0.248771001 -s 0 -d 1 -p cbr -e 210 -c 0 -i 13 -a 0 -x {0.0 3.0 13 ------- null}
+ -t 0.248771001 -s 1 -d 2 -p cbr -e 210 -c 0 -i 13 -a 0 -x {0.0 3.0 13 ------- null}
- -t 0.248771001 -s 1 -d 2 -p cbr -e 210 -c 0 -i 13 -a 0 -x {0.0 3.0 13 ------- null}
h -t 0.248771001 -s 1 -d 2 -p cbr -e 210 -c 0 -i 13 -a 0 -x {0.0 3.0 -1 ------- null}
r -t 0.248939003 -s 1 -d 2 -p cbr -e 210 -c 0 -i 13 -a 0 -x {0.0 3.0 13 ------- null}
+ -t 0.248939003 -s 2 -d 3 -p cbr -e 210 -c 0 -i 13 -a 0 -x {0.0 3.0 13 ------- null}
- -t 0.248939003 -s 2 -d 3 -p cbr -e 210 -c 0 -i 13 -a 0 -x {0.0 3.0 13 ------- null}
h -t 0.248939003 -s 2 -d 3 -p cbr -e 210 -c 0 -i 13 -a 0 -x {0.0 3.0 -1 ------- null}
r -t 0.249779006 -s 2 -d 3 -p cbr -e 210 -c 0 -i 13 -a 0 -x {0.0 3.0 13 ------- null}
+ -t 0.2525 -s 0 -d 1 -p cbr -e 210 -c 0 -i 14 -a 0 -x {0.0 3.0 14 ------- null}
- -t 0.2525 -s 0 -d 1 -p cbr -e 210 -c 0 -i 14 -a 0 -x {0.0 3.0 14 ------- null}
h -t 0.2525 -s 0 -d 1 -p cbr -e 210 -c 0 -i 14 -a 0 -x {0.0 3.0 -1 ------- null}
r -t 0.252521001 -s 0 -d 1 -p cbr -e 210 -c 0 -i 14 -a 0 -x {0.0 3.0 14 ------- null}
+ -t 0.252521001 -s 1 -d 2 -p cbr -e 210 -c 0 -i 14 -a 0 -x {0.0 3.0 14 ------- null}
- -t 0.252521001 -s 1 -d 2 -p cbr -e 210 -c 0 -i 14 -a 0 -x {0.0 3.0 14 ------- null}
h -t 0.252521001 -s 1 -d 2 -p cbr -e 210 -c 0 -i 14 -a 0 -x {0.0 3.0 -1 ------- null}
r -t 0.252689003 -s 1 -d 2 -p cbr -e 210 -c 0 -i 14 -a 0 -x {0.0 3.0 14 ------- null}
+ -t 0.252689003 -s 2 -d 3 -p cbr -e 210 -c 0 -i 14 -a 0 -x {0.0 3.0 14 ------- null}
- -t 0.252689003 -s 2 -d 3 -p cbr -e 210 -c 0 -i 14 -a 0 -x {0.0 3.0 14 ------- null}
h -t 0.252689003 -s 2 -d 3 -p cbr -e 210 -c 0 -i 14 -a 0 -x {0.0 3.0 -1 ------- null}
r -t 0.253529006 -s 2 -d 3 -p cbr -e 210 -c 0 -i 14 -a 0 -x {0.0 3.0 14 ------- null}
+ -t 0.25625 -s 0 -d 1 -p cbr -e 210 -c 0 -i 15 -a 0 -x {0.0 3.0 15 ------- null}
- -t 0.25625 -s 0 -d 1 -p cbr -e 210 -c 0 -i 15 -a 0 -x {0.0 3.0 15 ------- null}
h -t 0.25625 -s 0 -d 1 -p cbr -e 210 -c 0 -i 15 -a 0 -x {0.0 3.0 -1 ------- null}
r -t 0.256271001 -s 0 -d 1 -p cbr -e 210 -c 0 -i 15 -a 0 -x {0.0 3.0 15 ------- null}
+ -t 0.256271001 -s 1 -d 2 -p cbr -e 210 -c 0 -i 15 -a 0 -x {0.0 3.0 15 ------- null}
- -t 0.256271001 -s 1 -d 2 -p cbr -e 210 -c 0 -i 15 -a 0 -x {0.0 3.0 15 ------- null}
h -t 0.256271001 -s 1 -d 2 -p cbr -e 210 -c 0 -i 15 -a 0 -x {0.0 3.0 -1 ------- null}
r -t 0.256439003 -s 1 -d 2 -p cbr -e 210 -c 0 -i 15 -a 0 -x {0.0 3.0 15 ------- null}
+ -t 0.256439003 -s 2 -d 3 -p cbr -e 210 -c 0 -i 15 -a 0 -x {0.0 3.0 15 ------- null}
- -t 0.256439003 -s 2 -d 3 -p cbr -e 210 -c 0 -i 15 -a 0 -x {0.0 3.0 15 ------- null}
h -t 0.256439003 -s 2 -d 3 -p cbr -e 210 -c 0 -i 15 -a 0 -x {0.0 3.0 -1 ------- null}
r -t 0.257279006 -s 2 -d 3 -p cbr -e 210 -c 0 -i 15 -a 0 -x {0.0 3.0 15 ------- null}
+ -t 0.26 -s 0 -d 1 -p cbr -e 210 -c 0 -i 16 -a 0 -x {0.0 3.0 16 ------- null}
- -t 0.26 -s 0 -d 1 -p cbr -e 210 -c 0 -i 16 -a 0 -x {0.0 3.0 16 ------- null}
h -t 0.26 -s 0 -d 1 -p cbr -e 210 -c 0 -i 16 -a 0 -x {0.0 3.0 -1 ------- null}
r -t 0.260021001 -s 0 -d 1 -p cbr -e 210 -c 0 -i 16 -a 0 -x {0.0 3.0 16 ------- null}
+ -t 0.260021001 -s 1 -d 2 -p cbr -e 210 -c 0 -i 16 -a 0 -x {0.0 3.0 16 ------- null}
- -t 0.260021001 -s 1 -d 2 -p cbr -e 210 -c 0 -i 16 -a 0 -x {0.0 3.0 16 ------- null}
h -t 0.260021001 -s 1 -d 2 -p cbr -e 210 -c 0 -i 16 -a 0 -x {0.0 3.0 -1 ------- null}
r -t 0.260189003 -s 1 -d 2 -p cbr -e 210 -c 0 -i 16 -a 0 -x {0.0 3.0 16 ------- null}
+ -t 0.260189003 -s 2 -d 3 -p cbr -e 210 -c 0 -i 16 -a 0 -x {0.0 3.0 16 ------- null}
- -t 0.260189003 -s 2 -d 3 -p cbr -e 210 -c 0 -i 16 -a 0 -x {0.0 3.0 16 ------- null}
h -t 0.260189003 -s 2 -d 3 -p cbr -e 210 -c 0 -i 16 -a 0 -x {0.0 3.0 -1 ------- null}
r -t 0.261029006 -s 2 -d 3 -p cbr -e 210 -c 0 -i 16 -a 0 -x {0.0 3.0 16 ------- null}
+ -t 0.26375 -s 0 -d 1 -p cbr -e 210 -c 0 -i 17 -a 0 -x {0.0 3.0 17 ------- null}
- -t 0.26375 -s 0 -d 1 -p cbr -e 210 -c 0 -i 17 -a 0 -x {0.0 3.0 17 ------- null}
h -t 0.26375 -s 0 -d 1 -p cbr -e 210 -c 0 -i 17 -a 0 -x {0.0 3.0 -1 ------- null}
r -t 0.263771001 -s 0 -d 1 -p cbr -e 210 -c 0 -i 17 -a 0 -x {0.0 3.0 17 ------- null}
+ -t 0.263771001 -s 1 -d 2 -p cbr -e 210 -c 0 -i 17 -a 0 -x {0.0 3.0 17 ------- null}
- -t 0.263771001 -s 1 -d 2 -p cbr -e 210 -c 0 -i 17 -a 0 -x {0.0 3.0 17 ------- null}
h -t 0.263771001 -s 1 -d 2 -p cbr -e 210 -c 0 -i 17 -a 0 -x {0.0 3.0 -1 ------- null}
r -t 0.263939003 -s 1 -d 2 -p cbr -e 210 -c 0 -i 17 -a 0 -x {0.0 3.0 17 ------- null}
+ -t 0.263939003 -s 2 -d 3 -p cbr -e 210 -c 0 -i 17 -a 0 -x {0.0 3.0 17 ------- null}
- -t 0.263939003 -s 2 -d 3 -p cbr -e 210 -c 0 -i 17 -a 0 -x {0.0 3.0 17 ------- null}
h -t 0.263939003 -s 2 -d 3 -p cbr -e 210 -c 0 -i 17 -a 0 -x {0.0 3.0 -1 ------- null}
r -t 0.264779006 -s 2 -d 3 -p cbr -e 210 -c 0 -i 17 -a 0 -x {0.0 3.0 17 ------- null}
+ -t 0.2675 -s 0 -d 1 -p cbr -e 210 -c 0 -i 18 -a 0 -x {0.0 3.0 18 ------- null}
- -t 0.2675 -s 0 -d 1 -p cbr -e 210 -c 0 -i 18 -a 0 -x {0.0 3.0 18 ------- null}
h -t 0.2675 -s 0 -d 1 -p cbr -e 210 -c 0 -i 18 -a 0 -x {0.0 3.0 -1 ------- null}
r -t 0.267521001 -s 0 -d 1 -p cbr -e 210 -c 0 -i 18 -a 0 -x {0.0 3.0 18 ------- null}
+ -t 0.267521001 -s 1 -d 2 -p cbr -e 210 -c 0 -i 18 -a 0 -x {0.0 3.0 18 ------- null}
- -t 0.267521001 -s 1 -d 2 -p cbr -e 210 -c 0 -i 18 -a 0 -x {0.0 3.0 18 ------- null}
h -t 0.267521001 -s 1 -d 2 -p cbr -e 210 -c 0 -i 18 -a 0 -x {0.0 3.0 -1 ------- null}
r -t 0.267689003 -s 1 -d 2 -p cbr -e 210 -c 0 -i 18 -a 0 -x {0.0 3.0 18 ------- null}
+ -t 0.267689003 -s 2 -d 3 -p cbr -e 210 -c 0 -i 18 -a 0 -x {0.0 3.0 18 ------- null}
- -t 0.267689003 -s 2 -d 3 -p cbr -e 210 -c 0 -i 18 -a 0 -x {0.0 3.0 18 ------- null}
h -t 0.267689003 -s 2 -d 3 -p cbr -e 210 -c 0 -i 18 -a 0 -x {0.0 3.0 -1 ------- null}
r -t 0.268529006 -s 2 -d 3 -p cbr -e 210 -c 0 -i 18 -a 0 -x {0.0 3.0 18 ------- null}
+ -t 0.27125 -s 0 -d 1 -p cbr -e 210 -c 0 -i 19 -a 0 -x {0.0 3.0 19 ------- null}
- -t 0.27125 -s 0 -d 1 -p cbr -e 210 -c 0 -i 19 -a 0 -x {0.0 3.0 19 ------- null}
h -t 0.27125 -s 0 -d 1 -p cbr -e 210 -c 0 -i 19 -a 0 -x {0.0 3.0 -1 ------- null}
r -t 0.271271001 -s 0 -d 1 -p cbr -e 210 -c 0 -i 19 -a 0 -x {0.0 3.0 19 ------- null}
+ -t 0.271271001 -s 1 -d 2 -p cbr -e 210 -c 0 -i 19 -a 0 -x {0.0 3.0 19 ------- null}
- -t 0.271271001 -s 1 -d 2 -p cbr -e 210 -c 0 -i 19 -a 0 -x {0.0 3.0 19 ------- null}
h -t 0.271271001 -s 1 -d 2 -p cbr -e 210 -c 0 -i 19 -a 0 -x {0.0 3.0 -1 ------- null}
r -t 0.271439003 -s 1 -d 2 -p cbr -e 210 -c 0 -i 19 -a 0 -x {0.0 3.0 19 ------- null}
+ -t 0.271439003 -s 2 -d 3 -p cbr -e 210 -c 0 -i 19 -a 0 -x {0.0 3.0 19 ------- null}
- -t 0.271439003 -s 2 -d 3 -p cbr -e 210 -c 0 -i 19 -a 0 -x {0.0 3.0 19 ------- null}
h -t 0.271439003 -s 2 -d 3 -p cbr -e 210 -c 0 -i 19 -a 0 -x {0.0 3.0 -1 ------- null}
r -t 0.272279006 -s 2 -d 3 -p cbr -e 210 -c 0 -i 19 -a 0 -x {0.0 3.0 19 ------- null}
+ -t 0.275 -s 0 -d 1 -p cbr -e 210 -c 0 -i 20 -a 0 -x {0.0 3.0 20 ------- null}
- -t 0.275 -s 0 -d 1 -p cbr -e 210 -c 0 -i 20 -a 0 -x {0.0 3.0 20 ------- null}
h -t 0.275 -s 0 -d 1 -p cbr -e 210 -c 0 -i 20 -a 0 -x {0.0 3.0 -1 ------- null}
r -t 0.275021001 -s 0 -d 1 -p cbr -e 210 -c 0 -i 20 -a 0 -x {0.0 3.0 20 ------- null}
+ -t 0.275021001 -s 1 -d 2 -p cbr -e 210 -c 0 -i 20 -a 0 -x {0.0 3.0 20 ------- null}
- -t 0.275021001 -s 1 -d 2 -p cbr -e 210 -c 0 -i 20 -a 0 -x {0.0 3.0 20 ------- null}
h -t 0.275021001 -s 1 -d 2 -p cbr -e 210 -c 0 -i 20 -a 0 -x {0.0 3.0 -1 ------- null}
r -t 0.275189003 -s 1 -d 2 -p cbr -e 210 -c 0 -i 20 -a 0 -x {0.0 3.0 20 ------- null}
+ -t 0.275189003 -s 2 -d 3 -p cbr -e 210 -c 0 -i 20 -a 0 -x {0.0 3.0 20 ------- null}
- -t 0.275189003 -s 2 -d 3 -p cbr -e 210 -c 0 -i 20 -a 0 -x {0.0 3.0 20 ------- null}
h -t 0.275189003 -s 2 -d 3 -p cbr -e 210 -c 0 -i 20 -a 0 -x {0.0 3.0 -1 ------- null}
r -t 0.276029006 -s 2 -d 3 -p cbr -e 210 -c 0 -i 20 -a 0 -x {0.0 3.0 20 ------- null}
+ -t 0.27875 -s 0 -d 1 -p cbr -e 210 -c 0 -i 21 -a 0 -x {0.0 3.0 21 ------- null}
- -t 0.27875 -s 0 -d 1 -p cbr -e 210 -c 0 -i 21 -a 0 -x {0.0 3.0 21 ------- null}
h -t 0.27875 -s 0 -d 1 -p cbr -e 210 -c 0 -i 21 -a 0 -x {0.0 3.0 -1 ------- null}
r -t 0.278771001 -s 0 -d 1 -p cbr -e 210 -c 0 -i 21 -a 0 -x {0.0 3.0 21 ------- null}
+ -t 0.278771001 -s 1 -d 2 -p cbr -e 210 -c 0 -i 21 -a 0 -x {0.0 3.0 21 ------- null}
- -t 0.278771001 -s 1 -d 2 -p cbr -e 210 -c 0 -i 21 -a 0 -x {0.0 3.0 21 ------- null}
h -t 0.278771001 -s 1 -d 2 -p cbr -e 210 -c 0 -i 21 -a 0 -x {0.0 3.0 -1 ------- null}
r -t 0.278939003 -s 1 -d 2 -p cbr -e 210 -c 0 -i 21 -a 0 -x {0.0 3.0 21 ------- null}
+ -t 0.278939003 -s 2 -d 3 -p cbr -e 210 -c 0 -i 21 -a 0 -x {0.0 3.0 21 ------- null}
- -t 0.278939003 -s 2 -d 3 -p cbr -e 210 -c 0 -i 21 -a 0 -x {0.0 3.0 21 ------- null}
h -t 0.278939003 -s 2 -d 3 -p cbr -e 210 -c 0 -i 21 -a 0 -x {0.0 3.0 -1 ------- null}
r -t 0.279779006 -s 2 -d 3 -p cbr -e 210 -c 0 -i 21 -a 0 -x {0.0 3.0 21 ------- null}
+ -t 0.2825 -s 0 -d 1 -p cbr -e 210 -c 0 -i 22 -a 0 -x {0.0 3.0 22 ------- null}
- -t 0.2825 -s 0 -d 1 -p cbr -e 210 -c 0 -i 22 -a 0 -x {0.0 3.0 22 ------- null}
h -t 0.2825 -s 0 -d 1 -p cbr -e 210 -c 0 -i 22 -a 0 -x {0.0 3.0 -1 ------- null}
r -t 0.282521001 -s 0 -d 1 -p cbr -e 210 -c 0 -i 22 -a 0 -x {0.0 3.0 22 ------- null}
+ -t 0.282521001 -s 1 -d 2 -p cbr -e 210 -c 0 -i 22 -a 0 -x {0.0 3.0 22 ------- null}
- -t 0.282521001 -s 1 -d 2 -p cbr -e 210 -c 0 -i 22 -a 0 -x {0.0 3.0 22 ------- null}
h -t 0.282521001 -s 1 -d 2 -p cbr -e 210 -c 0 -i 22 -a 0 -x {0.0 3.0 -1 ------- null}
r -t 0.282689003 -s 1 -d 2 -p cbr -e 210 -c 0 -i 22 -a 0 -x {0.0 3.0 22 ------- null}
+ -t 0.282689003 -s 2 -d 3 -p cbr -e 210 -c 0 -i 22 -a 0 -x {0.0 3.0 22 ------- null}
- -t 0.282689003 -s 2 -d 3 -p cbr -e 210 -c 0 -i 22 -a 0 -x {0.0 3.0 22 ------- null}
h -t 0.282689003 -s 2 -d 3 -p cbr -e 210 -c 0 -i 22 -a 0 -x {0.0 3.0 -1 ------- null}
r -t 0.283529006 -s 2 -d 3 -p cbr -e 210 -c 0 -i 22 -a 0 -x {0.0 3.0 22 ------- null}
+ -t 0.28625 -s 0 -d 1 -p cbr -e 210 -c 0 -i 23 -a 0 -x {0.0 3.0 23 ------- null}
- -t 0.28625 -s 0 -d 1 -p cbr -e 210 -c 0 -i 23 -a 0 -x {0.0 3.0 23 ------- null}
h -t 0.28625 -s 0 -d 1 -p cbr -e 210 -c 0 -i 23 -a 0 -x {0.0 3.0 -1 ------- null}
r -t 0.286271001 -s 0 -d 1 -p cbr -e 210 -c 0 -i 23 -a 0 -x {0.0 3.0 23 ------- null}
+ -t 0.286271001 -s 1 -d 2 -p cbr -e 210 -c 0 -i 23 -a 0 -x {0.0 3.0 23 ------- null}
- -t 0.286271001 -s 1 -d 2 -p cbr -e 210 -c 0 -i 23 -a 0 -x {0.0 3.0 23 ------- null}
h -t 0.286271001 -s 1 -d 2 -p cbr -e 210 -c 0 -i 23 -a 0 -x {0.0 3.0 -1 ------- null}
r -t 0.286439003 -s 1 -d 2 -p cbr -e 210 -c 0 -i 23 -a 0 -x {0.0 3.0 23 ------- null}
+ -t 0.286439003 -s 2 -d 3 -p cbr -e 210 -c 0 -i 23 -a 0 -x {0.0 3.0 23 ------- null}
- -t 0.286439003 -s 2 -d 3 -p cbr -e 210 -c 0 -i 23 -a 0 -x {0.0 3.0 23 ------- null}
h -t 0.286439003 -s 2 -d 3 -p cbr -e 210 -c 0 -i 23 -a 0 -x {0.0 3.0 -1 ------- null}
r -t 0.287279006 -s 2 -d 3 -p cbr -e 210 -c 0 -i 23 -a 0 -x {0.0 3.0 23 ------- null}
+ -t 0.29 -s 0 -d 1 -p cbr -e 210 -c 0 -i 24 -a 0 -x {0.0 3.0 24 ------- null}
- -t 0.29 -s 0 -d 1 -p cbr -e 210 -c 0 -i 24 -a 0 -x {0.0 3.0 24 ------- null}
h -t 0.29 -s 0 -d 1 -p cbr -e 210 -c 0 -i 24 -a 0 -x {0.0 3.0 -1 ------- null}
r -t 0.290021001 -s 0 -d 1 -p cbr -e 210 -c 0 -i 24 -a 0 -x {0.0 3.0 24 ------- null}
+ -t 0.290021001 -s 1 -d 2 -p cbr -e 210 -c 0 -i 24 -a 0 -x {0.0 3.0 24 ------- null}
- -t 0.290021001 -s 1 -d 2 -p cbr -e 210 -c 0 -i 24 -a 0 -x {0.0 3.0 24 ------- null}
h -t 0.290021001 -s 1 -d 2 -p cbr -e 210 -c 0 -i 24 -a 0 -x {0.0 3.0 -1 ------- null}
r -t 0.290189003 -s 1 -d 2 -p cbr -e 210 -c 0 -i 24 -a 0 -x {0.0 3.0 24 ------- null}
+ -t 0.290189003 -s 2 -d 3 -p cbr -e 210 -c 0 -i 24 -a 0 -x {0.0 3.0 24 ------- null}
- -t 0.290189003 -s 2 -d 3 -p cbr -e 210 -c 0 -i 24 -a 0 -x {0.0 3.0 24 ------- null}
h -t 0.290189003 -s 2 -d 3 -p cbr -e 210 -c 0 -i 24 -a 0 -x {0.0 3.0 -1 ------- null}
r -t 0.291029006 -s 2 -d 3 -p cbr -e 210 -c 0 -i 24 -a 0 -x {0.0 3.0 24 ------- null}
+ -t 0.29375 -s 0 -d 1 -p cbr -e 210 -c 0 -i 25 -a 0 -x {0.0 3.0 25 ------- null}
- -t 0.29375 -s 0 -d 1 -p cbr -e 210 -c 0 -i 25 -a 0 -x {0.0 3.0 25 ------- null}
h -t 0.29375 -s 0 -d 1 -p cbr -e 210 -c 0 -i 25 -a 0 -x {0.0 3.0 -1 ------- null}
r -t 0.293771001 -s 0 -d 1 -p cbr -e 210 -c 0 -i 25 -a 0 -x {0.0 3.0 25 ------- null}
+ -t 0.293771001 -s 1 -d 2 -p cbr -e 210 -c 0 -i 25 -a 0 -x {0.0 3.0 25 ------- null}
- -t 0.293771001 -s 1 -d 2 -p cbr -e 210 -c 0 -i 25 -a 0 -x {0.0 3.0 25 ------- null}
h -t 0.293771001 -s 1 -d 2 -p cbr -e 210 -c 0 -i 25 -a 0 -x {0.0 3.0 -1 ------- null}
r -t 0.293939003 -s 1 -d 2 -p cbr -e 210 -c 0 -i 25 -a 0 -x {0.0 3.0 25 ------- null}
+ -t 0.293939003 -s 2 -d 3 -p cbr -e 210 -c 0 -i 25 -a 0 -x {0.0 3.0 25 ------- null}
- -t 0.293939003 -s 2 -d 3 -p cbr -e 210 -c 0 -i 25 -a 0 -x {0.0 3.0 25 ------- null}
h -t 0.293939003 -s 2 -d 3 -p cbr -e 210 -c 0 -i 25 -a 0 -x {0.0 3.0 -1 ------- null}
r -t 0.294779006 -s 2 -d 3 -p cbr -e 210 -c 0 -i 25 -a 0 -x {0.0 3.0 25 ------- null}
+ -t 0.2975 -s 0 -d 1 -p cbr -e 210 -c 0 -i 26 -a 0 -x {0.0 3.0 26 ------- null}
- -t 0.2975 -s 0 -d 1 -p cbr -e 210 -c 0 -i 26 -a 0 -x {0.0 3.0 26 ------- null}
h -t 0.2975 -s 0 -d 1 -p cbr -e 210 -c 0 -i 26 -a 0 -x {0.0 3.0 -1 ------- null}
r -t 0.297521001 -s 0 -d 1 -p cbr -e 210 -c 0 -i 26 -a 0 -x {0.0 3.0 26 ------- null}
+ -t 0.297521001 -s 1 -d 2 -p cbr -e 210 -c 0 -i 26 -a 0 -x {0.0 3.0 26 ------- null}
- -t 0.297521001 -s 1 -d 2 -p cbr -e 210 -c 0 -i 26 -a 0 -x {0.0 3.0 26 ------- null}
h -t 0.297521001 -s 1 -d 2 -p cbr -e 210 -c 0 -i 26 -a 0 -x {0.0 3.0 -1 ------- null}
r -t 0.297689003 -s 1 -d 2 -p cbr -e 210 -c 0 -i 26 -a 0 -x {0.0 3.0 26 ------- null}
+ -t 0.297689003 -s 2 -d 3 -p cbr -e 210 -c 0 -i 26 -a 0 -x {0.0 3.0 26 ------- null}
- -t 0.297689003 -s 2 -d 3 -p cbr -e 210 -c 0 -i 26 -a 0 -x {0.0 3.0 26 ------- null}
h -t 0.297689003 -s 2 -d 3 -p cbr -e 210 -c 0 -i 26 -a 0 -x {0.0 3.0 -1 ------- null}
r -t 0.298529006 -s 2 -d 3 -p cbr -e 210 -c 0 -i 26 -a 0 -x {0.0 3.0 26 ------- null}
+ -t 0.30125 -s 0 -d 1 -p cbr -e 210 -c 0 -i 27 -a 0 -x {0.0 3.0 27 ------- null}
- -t 0.30125 -s 0 -d 1 -p cbr -e 210 -c 0 -i 27 -a 0 -x {0.0 3.0 27 ------- null}
h -t 0.30125 -s 0 -d 1 -p cbr -e 210 -c 0 -i 27 -a 0 -x {0.0 3.0 -1 ------- null}
r -t 0.301271001 -s 0 -d 1 -p cbr -e 210 -c 0 -i 27 -a 0 -x {0.0 3.0 27 ------- null}
+ -t 0.301271001 -s 1 -d 2 -p cbr -e 210 -c 0 -i 27 -a 0 -x {0.0 3.0 27 ------- null}
- -t 0.301271001 -s 1 -d 2 -p cbr -e 210 -c 0 -i 27 -a 0 -x {0.0 3.0 27 ------- null}
h -t 0.301271001 -s 1 -d 2 -p cbr -e 210 -c 0 -i 27 -a 0 -x {0.0 3.0 -1 ------- null}
r -t 0.301439003 -s 1 -d 2 -p cbr -e 210 -c 0 -i 27 -a 0 -x {0.0 3.0 27 ------- null}
+ -t 0.301439003 -s 2 -d 3 -p cbr -e 210 -c 0 -i 27 -a 0 -x {0.0 3.0 27 ------- null}
- -t 0.301439003 -s 2 -d 3 -p cbr -e 210 -c 0 -i 27 -a 0 -x {0.0 3.0 27 ------- null}
h -t 0.301439003 -s 2 -d 3 -p cbr -e 210 -c 0 -i 27 -a 0 -x {0.0 3.0 -1 ------- null}
r -t 0.302279006 -s 2 -d 3 -p cbr -e 210 -c 0 -i 27 -a 0 -x {0.0 3.0 27 ------- null}
+ -t 0.305 -s 0 -d 1 -p cbr -e 210 -c 0 -i 28 -a 0 -x {0.0 3.0 28 ------- null}
- -t 0.305 -s 0 -d 1 -p cbr -e 210 -c 0 -i 28 -a 0 -x {0.0 3.0 28 ------- null}
h -t 0.305 -s 0 -d 1 -p cbr -e 210 -c 0 -i 28 -a 0 -x {0.0 3.0 -1 ------- null}
r -t 0.305021001 -s 0 -d 1 -p cbr -e 210 -c 0 -i 28 -a 0 -x {0.0 3.0 28 ------- null}
+ -t 0.305021001 -s 1 -d 2 -p cbr -e 210 -c 0 -i 28 -a 0 -x {0.0 3.0 28 ------- null}
- -t 0.305021001 -s 1 -d 2 -p cbr -e 210 -c 0 -i 28 -a 0 -x {0.0 3.0 28 ------- null}
h -t 0.305021001 -s 1 -d 2 -p cbr -e 210 -c 0 -i 28 -a 0 -x {0.0 3.0 -1 ------- null}
r -t 0.305189003 -s 1 -d 2 -p cbr -e 210 -c 0 -i 28 -a 0 -x {0.0 3.0 28 ------- null}
+ -t 0.305189003 -s 2 -d 3 -p cbr -e 210 -c 0 -i 28 -a 0 -x {0.0 3.0 28 ------- null}
- -t 0.305189003 -s 2 -d 3 -p cbr -e 210 -c 0 -i 28 -a 0 -x {0.0 3.0 28 ------- null}
h -t 0.305189003 -s 2 -d 3 -p cbr -e 210 -c 0 -i 28 -a 0 -x {0.0 3.0 -1 ------- null}
r -t 0.306029006 -s 2 -d 3 -p cbr -e 210 -c 0 -i 28 -a 0 -x {0.0 3.0 28 ------- null}
+ -t 0.30875 -s 0 -d 1 -p cbr -e 210 -c 0 -i 29 -a 0 -x {0.0 3.0 29 ------- null}