+ 0.1 0 4 ping 50000 ------- 0 0.0 5.0 -1 0
- 0.1 0 4 ping 50000 ------- 0 0.0 5.0 -1 0
+ 0.1 2 4 ping 30000 ------- 0 2.0 3.0 -1 1
- 0.1 2 4 ping 30000 ------- 0 2.0 3.0 -1 1
r 0.1124 2 4 ping 30000 ------- 0 2.0 3.0 -1 1
+ 0.1124 4 3 ping 30000 ------- 0 2.0 3.0 -1 1
- 0.1124 4 3 ping 30000 ------- 0 2.0 3.0 -1 1
r 0.114 0 4 ping 50000 ------- 0 0.0 5.0 -1 0
+ 0.114 4 5 ping 50000 ------- 0 0.0 5.0 -1 0
- 0.114 4 5 ping 50000 ------- 0 0.0 5.0 -1 0
r 0.1248 4 3 ping 30000 ------- 0 2.0 3.0 -1 1
+ 0.1248 3 4 ping 64 ------- 0 3.0 2.0 -1 2
- 0.1248 3 4 ping 64 ------- 0 3.0 2.0 -1 2
r 0.128 4 5 ping 50000 ------- 0 0.0 5.0 -1 0
+ 0.128 5 4 ping 64 ------- 0 5.0 0.0 -1 3
- 0.128 5 4 ping 64 ------- 0 5.0 0.0 -1 3
r 0.134805 3 4 ping 64 ------- 0 3.0 2.0 -1 2
+ 0.134805 4 2 ping 64 ------- 0 3.0 2.0 -1 2
- 0.134805 4 2 ping 64 ------- 0 3.0 2.0 -1 2
r 0.138005 5 4 ping 64 ------- 0 5.0 0.0 -1 3
+ 0.138005 4 0 ping 64 ------- 0 5.0 0.0 -1 3
- 0.138005 4 0 ping 64 ------- 0 5.0 0.0 -1 3
r 0.14481 4 2 ping 64 ------- 0 3.0 2.0 -1 2
r 0.14801 4 0 ping 64 ------- 0 5.0 0.0 -1 3
+ 0.2 0 4 ping 50000 ------- 0 0.0 5.0 -1 4
- 0.2 0 4 ping 50000 ------- 0 0.0 5.0 -1 4
+ 0.2 2 4 ping 30000 ------- 0 2.0 3.0 -1 5
- 0.2 2 4 ping 30000 ------- 0 2.0 3.0 -1 5
r 0.2124 2 4 ping 30000 ------- 0 2.0 3.0 -1 5
+ 0.2124 4 3 ping 30000 ------- 0 2.0 3.0 -1 5
- 0.2124 4 3 ping 30000 ------- 0 2.0 3.0 -1 5
r 0.214 0 4 ping 50000 ------- 0 0.0 5.0 -1 4
+ 0.214 4 5 ping 50000 ------- 0 0.0 5.0 -1 4
- 0.214 4 5 ping 50000 ------- 0 0.0 5.0 -1 4
r 0.2248 4 3 ping 30000 ------- 0 2.0 3.0 -1 5
+ 0.2248 3 4 ping 64 ------- 0 3.0 2.0 -1 6
- 0.2248 3 4 ping 64 ------- 0 3.0 2.0 -1 6
r 0.228 4 5 ping 50000 ------- 0 0.0 5.0 -1 4
+ 0.228 5 4 ping 64 ------- 0 5.0 0.0 -1 7
- 0.228 5 4 ping 64 ------- 0 5.0 0.0 -1 7
r 0.234805 3 4 ping 64 ------- 0 3.0 2.0 -1 6
+ 0.234805 4 2 ping 64 ------- 0 3.0 2.0 -1 6
- 0.234805 4 2 ping 64 ------- 0 3.0 2.0 -1 6
r 0.238005 5 4 ping 64 ------- 0 5.0 0.0 -1 7
+ 0.238005 4 0 ping 64 ------- 0 5.0 0.0 -1 7
- 0.238005 4 0 ping 64 ------- 0 5.0 0.0 -1 7
r 0.24481 4 2 ping 64 ------- 0 3.0 2.0 -1 6
r 0.24801 4 0 ping 64 ------- 0 5.0 0.0 -1 7
+ 0.3 0 4 ping 50000 ------- 0 0.0 5.0 -1 8
- 0.3 0 4 ping 50000 ------- 0 0.0 5.0 -1 8
+ 0.3 2 4 ping 30000 ------- 0 2.0 3.0 -1 9
- 0.3 2 4 ping 30000 ------- 0 2.0 3.0 -1 9
r 0.3124 2 4 ping 30000 ------- 0 2.0 3.0 -1 9
+ 0.3124 4 3 ping 30000 ------- 0 2.0 3.0 -1 9
- 0.3124 4 3 ping 30000 ------- 0 2.0 3.0 -1 9
r 0.314 0 4 ping 50000 ------- 0 0.0 5.0 -1 8
+ 0.314 4 5 ping 50000 ------- 0 0.0 5.0 -1 8
- 0.314 4 5 ping 50000 ------- 0 0.0 5.0 -1 8
r 0.3248 4 3 ping 30000 ------- 0 2.0 3.0 -1 9
+ 0.3248 3 4 ping 64 ------- 0 3.0 2.0 -1 10
- 0.3248 3 4 ping 64 ------- 0 3.0 2.0 -1 10
r 0.328 4 5 ping 50000 ------- 0 0.0 5.0 -1 8
+ 0.328 5 4 ping 64 ------- 0 5.0 0.0 -1 11
- 0.328 5 4 ping 64 ------- 0 5.0 0.0 -1 11
r 0.334805 3 4 ping 64 ------- 0 3.0 2.0 -1 10
+ 0.334805 4 2 ping 64 ------- 0 3.0 2.0 -1 10
- 0.334805 4 2 ping 64 ------- 0 3.0 2.0 -1 10
r 0.338005 5 4 ping 64 ------- 0 5.0 0.0 -1 11
+ 0.338005 4 0 ping 64 ------- 0 5.0 0.0 -1 11
- 0.338005 4 0 ping 64 ------- 0 5.0 0.0 -1 11
r 0.34481 4 2 ping 64 ------- 0 3.0 2.0 -1 10
r 0.34801 4 0 ping 64 ------- 0 5.0 0.0 -1 11
+ 0.4 0 4 ping 50000 ------- 0 0.0 5.0 -1 12
- 0.4 0 4 ping 50000 ------- 0 0.0 5.0 -1 12
+ 0.4 2 4 ping 30000 ------- 0 2.0 3.0 -1 13
- 0.4 2 4 ping 30000 ------- 0 2.0 3.0 -1 13
r 0.4124 2 4 ping 30000 ------- 0 2.0 3.0 -1 13
+ 0.4124 4 3 ping 30000 ------- 0 2.0 3.0 -1 13
- 0.4124 4 3 ping 30000 ------- 0 2.0 3.0 -1 13
r 0.414 0 4 ping 50000 ------- 0 0.0 5.0 -1 12
+ 0.414 4 5 ping 50000 ------- 0 0.0 5.0 -1 12
- 0.414 4 5 ping 50000 ------- 0 0.0 5.0 -1 12
r 0.4248 4 3 ping 30000 ------- 0 2.0 3.0 -1 13
+ 0.4248 3 4 ping 64 ------- 0 3.0 2.0 -1 14
- 0.4248 3 4 ping 64 ------- 0 3.0 2.0 -1 14
r 0.428 4 5 ping 50000 ------- 0 0.0 5.0 -1 12
+ 0.428 5 4 ping 64 ------- 0 5.0 0.0 -1 15
- 0.428 5 4 ping 64 ------- 0 5.0 0.0 -1 15
r 0.434805 3 4 ping 64 ------- 0 3.0 2.0 -1 14
+ 0.434805 4 2 ping 64 ------- 0 3.0 2.0 -1 14
- 0.434805 4 2 ping 64 ------- 0 3.0 2.0 -1 14
r 0.438005 5 4 ping 64 ------- 0 5.0 0.0 -1 15
+ 0.438005 4 0 ping 64 ------- 0 5.0 0.0 -1 15
- 0.438005 4 0 ping 64 ------- 0 5.0 0.0 -1 15
r 0.44481 4 2 ping 64 ------- 0 3.0 2.0 -1 14
r 0.44801 4 0 ping 64 ------- 0 5.0 0.0 -1 15
+ 0.5 0 4 ping 50000 ------- 0 0.0 5.0 -1 16
- 0.5 0 4 ping 50000 ------- 0 0.0 5.0 -1 16
+ 0.5 2 4 ping 30000 ------- 0 2.0 3.0 -1 17
- 0.5 2 4 ping 30000 ------- 0 2.0 3.0 -1 17
r 0.5124 2 4 ping 30000 ------- 0 2.0 3.0 -1 17
+ 0.5124 4 3 ping 30000 ------- 0 2.0 3.0 -1 17
- 0.5124 4 3 ping 30000 ------- 0 2.0 3.0 -1 17
r 0.514 0 4 ping 50000 ------- 0 0.0 5.0 -1 16
+ 0.514 4 5 ping 50000 ------- 0 0.0 5.0 -1 16
- 0.514 4 5 ping 50000 ------- 0 0.0 5.0 -1 16
r 0.5248 4 3 ping 30000 ------- 0 2.0 3.0 -1 17
+ 0.5248 3 4 ping 64 ------- 0 3.0 2.0 -1 18
- 0.5248 3 4 ping 64 ------- 0 3.0 2.0 -1 18
r 0.528 4 5 ping 50000 ------- 0 0.0 5.0 -1 16
+ 0.528 5 4 ping 64 ------- 0 5.0 0.0 -1 19
- 0.528 5 4 ping 64 ------- 0 5.0 0.0 -1 19
r 0.534805 3 4 ping 64 ------- 0 3.0 2.0 -1 18
+ 0.534805 4 2 ping 64 ------- 0 3.0 2.0 -1 18
- 0.534805 4 2 ping 64 ------- 0 3.0 2.0 -1 18
r 0.538005 5 4 ping 64 ------- 0 5.0 0.0 -1 19
+ 0.538005 4 0 ping 64 ------- 0 5.0 0.0 -1 19
- 0.538005 4 0 ping 64 ------- 0 5.0 0.0 -1 19
r 0.54481 4 2 ping 64 ------- 0 3.0 2.0 -1 18
r 0.54801 4 0 ping 64 ------- 0 5.0 0.0 -1 19
+ 0.6 0 4 ping 50000 ------- 0 0.0 5.0 -1 20
- 0.6 0 4 ping 50000 ------- 0 0.0 5.0 -1 20
+ 0.6 2 4 ping 30000 ------- 0 2.0 3.0 -1 21
- 0.6 2 4 ping 30000 ------- 0 2.0 3.0 -1 21
r 0.6124 2 4 ping 30000 ------- 0 2.0 3.0 -1 21
+ 0.6124 4 3 ping 30000 ------- 0 2.0 3.0 -1 21
- 0.6124 4 3 ping 30000 ------- 0 2.0 3.0 -1 21
r 0.614 0 4 ping 50000 ------- 0 0.0 5.0 -1 20
+ 0.614 4 5 ping 50000 ------- 0 0.0 5.0 -1 20
- 0.614 4 5 ping 50000 ------- 0 0.0 5.0 -1 20
r 0.6248 4 3 ping 30000 ------- 0 2.0 3.0 -1 21
+ 0.6248 3 4 ping 64 ------- 0 3.0 2.0 -1 22
- 0.6248 3 4 ping 64 ------- 0 3.0 2.0 -1 22
r 0.628 4 5 ping 50000 ------- 0 0.0 5.0 -1 20
+ 0.628 5 4 ping 64 ------- 0 5.0 0.0 -1 23
- 0.628 5 4 ping 64 ------- 0 5.0 0.0 -1 23
r 0.634805 3 4 ping 64 ------- 0 3.0 2.0 -1 22
+ 0.634805 4 2 ping 64 ------- 0 3.0 2.0 -1 22
- 0.634805 4 2 ping 64 ------- 0 3.0 2.0 -1 22
r 0.638005 5 4 ping 64 ------- 0 5.0 0.0 -1 23
+ 0.638005 4 0 ping 64 ------- 0 5.0 0.0 -1 23
- 0.638005 4 0 ping 64 ------- 0 5.0 0.0 -1 23
r 0.64481 4 2 ping 64 ------- 0 3.0 2.0 -1 22
r 0.64801 4 0 ping 64 ------- 0 5.0 0.0 -1 23
+ 0.7 0 4 ping 50000 ------- 0 0.0 5.0 -1 24
- 0.7 0 4 ping 50000 ------- 0 0.0 5.0 -1 24
+ 0.7 2 4 ping 30000 ------- 0 2.0 3.0 -1 25
- 0.7 2 4 ping 30000 ------- 0 2.0 3.0 -1 25
r 0.7124 2 4 ping 30000 ------- 0 2.0 3.0 -1 25
+ 0.7124 4 3 ping 30000 ------- 0 2.0 3.0 -1 25
- 0.7124 4 3 ping 30000 ------- 0 2.0 3.0 -1 25
r 0.714 0 4 ping 50000 ------- 0 0.0 5.0 -1 24
+ 0.714 4 5 ping 50000 ------- 0 0.0 5.0 -1 24
- 0.714 4 5 ping 50000 ------- 0 0.0 5.0 -1 24
r 0.7248 4 3 ping 30000 ------- 0 2.0 3.0 -1 25
+ 0.7248 3 4 ping 64 ------- 0 3.0 2.0 -1 26
- 0.7248 3 4 ping 64 ------- 0 3.0 2.0 -1 26
r 0.728 4 5 ping 50000 ------- 0 0.0 5.0 -1 24
+ 0.728 5 4 ping 64 ------- 0 5.0 0.0 -1 27
- 0.728 5 4 ping 64 ------- 0 5.0 0.0 -1 27
r 0.734805 3 4 ping 64 ------- 0 3.0 2.0 -1 26
+ 0.734805 4 2 ping 64 ------- 0 3.0 2.0 -1 26
- 0.734805 4 2 ping 64 ------- 0 3.0 2.0 -1 26
r 0.738005 5 4 ping 64 ------- 0 5.0 0.0 -1 27
+ 0.738005 4 0 ping 64 ------- 0 5.0 0.0 -1 27
- 0.738005 4 0 ping 64 ------- 0 5.0 0.0 -1 27
r 0.74481 4 2 ping 64 ------- 0 3.0 2.0 -1 26
r 0.74801 4 0 ping 64 ------- 0 5.0 0.0 -1 27
+ 0.8 0 4 ping 50000 ------- 0 0.0 5.0 -1 28
- 0.8 0 4 ping 50000 ------- 0 0.0 5.0 -1 28
+ 0.8 2 4 ping 30000 ------- 0 2.0 3.0 -1 29
- 0.8 2 4 ping 30000 ------- 0 2.0 3.0 -1 29
r 0.8124 2 4 ping 30000 ------- 0 2.0 3.0 -1 29
+ 0.8124 4 3 ping 30000 ------- 0 2.0 3.0 -1 29
- 0.8124 4 3 ping 30000 ------- 0 2.0 3.0 -1 29
r 0.814 0 4 ping 50000 ------- 0 0.0 5.0 -1 28
+ 0.814 4 5 ping 50000 ------- 0 0.0 5.0 -1 28
- 0.814 4 5 ping 50000 ------- 0 0.0 5.0 -1 28
r 0.8248 4 3 ping 30000 ------- 0 2.0 3.0 -1 29
+ 0.8248 3 4 ping 64 ------- 0 3.0 2.0 -1 30
- 0.8248 3 4 ping 64 ------- 0 3.0 2.0 -1 30
r 0.828 4 5 ping 50000 ------- 0 0.0 5.0 -1 28
+ 0.828 5 4 ping 64 ------- 0 5.0 0.0 -1 31
- 0.828 5 4 ping 64 ------- 0 5.0 0.0 -1 31
r 0.834805 3 4 ping 64 ------- 0 3.0 2.0 -1 30
+ 0.834805 4 2 ping 64 ------- 0 3.0 2.0 -1 30
- 0.834805 4 2 ping 64 ------- 0 3.0 2.0 -1 30
r 0.838005 5 4 ping 64 ------- 0 5.0 0.0 -1 31
+ 0.838005 4 0 ping 64 ------- 0 5.0 0.0 -1 31
- 0.838005 4 0 ping 64 ------- 0 5.0 0.0 -1 31
r 0.84481 4 2 ping 64 ------- 0 3.0 2.0 -1 30
r 0.84801 4 0 ping 64 ------- 0 5.0 0.0 -1 31
+ 0.9 0 4 ping 50000 ------- 0 0.0 5.0 -1 32
- 0.9 0 4 ping 50000 ------- 0 0.0 5.0 -1 32
+ 0.9 2 4 ping 30000 ------- 0 2.0 3.0 -1 33
- 0.9 2 4 ping 30000 ------- 0 2.0 3.0 -1 33
r 0.9124 2 4 ping 30000 ------- 0 2.0 3.0 -1 33
+ 0.9124 4 3 ping 30000 ------- 0 2.0 3.0 -1 33
- 0.9124 4 3 ping 30000 ------- 0 2.0 3.0 -1 33
r 0.914 0 4 ping 50000 ------- 0 0.0 5.0 -1 32
+ 0.914 4 5 ping 50000 ------- 0 0.0 5.0 -1 32
- 0.914 4 5 ping 50000 ------- 0 0.0 5.0 -1 32
r 0.9248 4 3 ping 30000 ------- 0 2.0 3.0 -1 33
+ 0.9248 3 4 ping 64 ------- 0 3.0 2.0 -1 34
- 0.9248 3 4 ping 64 ------- 0 3.0 2.0 -1 34
r 0.928 4 5 ping 50000 ------- 0 0.0 5.0 -1 32
+ 0.928 5 4 ping 64 ------- 0 5.0 0.0 -1 35
- 0.928 5 4 ping 64 ------- 0 5.0 0.0 -1 35
r 0.934805 3 4 ping 64 ------- 0 3.0 2.0 -1 34
+ 0.934805 4 2 ping 64 ------- 0 3.0 2.0 -1 34
- 0.934805 4 2 ping 64 ------- 0 3.0 2.0 -1 34
r 0.938005 5 4 ping 64 ------- 0 5.0 0.0 -1 35
+ 0.938005 4 0 ping 64 ------- 0 5.0 0.0 -1 35
- 0.938005 4 0 ping 64 ------- 0 5.0 0.0 -1 35
r 0.94481 4 2 ping 64 ------- 0 3.0 2.0 -1 34
r 0.94801 4 0 ping 64 ------- 0 5.0 0.0 -1 35
+ 1 0 4 ping 50000 ------- 0 0.0 5.0 -1 36
- 1 0 4 ping 50000 ------- 0 0.0 5.0 -1 36
+ 1 2 4 ping 30000 ------- 0 2.0 3.0 -1 37
- 1 2 4 ping 30000 ------- 0 2.0 3.0 -1 37
r 1.0124 2 4 ping 30000 ------- 0 2.0 3.0 -1 37
+ 1.0124 4 3 ping 30000 ------- 0 2.0 3.0 -1 37
- 1.0124 4 3 ping 30000 ------- 0 2.0 3.0 -1 37
r 1.014 0 4 ping 50000 ------- 0 0.0 5.0 -1 36
+ 1.014 4 5 ping 50000 ------- 0 0.0 5.0 -1 36
- 1.014 4 5 ping 50000 ------- 0 0.0 5.0 -1 36
r 1.0248 4 3 ping 30000 ------- 0 2.0 3.0 -1 37
+ 1.0248 3 4 ping 64 ------- 0 3.0 2.0 -1 38
- 1.0248 3 4 ping 64 ------- 0 3.0 2.0 -1 38
r 1.028 4 5 ping 50000 ------- 0 0.0 5.0 -1 36
+ 1.028 5 4 ping 64 ------- 0 5.0 0.0 -1 39
- 1.028 5 4 ping 64 ------- 0 5.0 0.0 -1 39
r 1.034805 3 4 ping 64 ------- 0 3.0 2.0 -1 38
+ 1.034805 4 2 ping 64 ------- 0 3.0 2.0 -1 38
- 1.034805 4 2 ping 64 ------- 0 3.0 2.0 -1 38
r 1.038005 5 4 ping 64 ------- 0 5.0 0.0 -1 39
+ 1.038005 4 0 ping 64 ------- 0 5.0 0.0 -1 39
- 1.038005 4 0 ping 64 ------- 0 5.0 0.0 -1 39
r 1.04481 4 2 ping 64 ------- 0 3.0 2.0 -1 38
r 1.04801 4 0 ping 64 ------- 0 5.0 0.0 -1 39
+ 1.1 0 4 ping 50000 ------- 0 0.0 5.0 -1 40
- 1.1 0 4 ping 50000 ------- 0 0.0 5.0 -1 40
r 1.114 0 4 ping 50000 ------- 0 0.0 5.0 -1 40
+ 1.114 4 5 ping 50000 ------- 0 0.0 5.0 -1 40
- 1.114 4 5 ping 50000 ------- 0 0.0 5.0 -1 40
r 1.128 4 5 ping 50000 ------- 0 0.0 5.0 -1 40
+ 1.128 5 4 ping 64 ------- 0 5.0 0.0 -1 41
- 1.128 5 4 ping 64 ------- 0 5.0 0.0 -1 41
r 1.138005 5 4 ping 64 ------- 0 5.0 0.0 -1 41
+ 1.138005 4 0 ping 64 ------- 0 5.0 0.0 -1 41
- 1.138005 4 0 ping 64 ------- 0 5.0 0.0 -1 41
r 1.14801 4 0 ping 64 ------- 0 5.0 0.0 -1 41
+ 1.2 0 4 ping 50000 ------- 0 0.0 5.0 -1 42
- 1.2 0 4 ping 50000 ------- 0 0.0 5.0 -1 42
r 1.214 0 4 ping 50000 ------- 0 0.0 5.0 -1 42
+ 1.214 4 5 ping 50000 ------- 0 0.0 5.0 -1 42
- 1.214 4 5 ping 50000 ------- 0 0.0 5.0 -1 42
r 1.228 4 5 ping 50000 ------- 0 0.0 5.0 -1 42
+ 1.228 5 4 ping 64 ------- 0 5.0 0.0 -1 43
- 1.228 5 4 ping 64 ------- 0 5.0 0.0 -1 43
r 1.238005 5 4 ping 64 ------- 0 5.0 0.0 -1 43
+ 1.238005 4 0 ping 64 ------- 0 5.0 0.0 -1 43
- 1.238005 4 0 ping 64 ------- 0 5.0 0.0 -1 43
r 1.24801 4 0 ping 64 ------- 0 5.0 0.0 -1 43
+ 1.3 0 4 ping 50000 ------- 0 0.0 5.0 -1 44
- 1.3 0 4 ping 50000 ------- 0 0.0 5.0 -1 44
r 1.314 0 4 ping 50000 ------- 0 0.0 5.0 -1 44
+ 1.314 4 5 ping 50000 ------- 0 0.0 5.0 -1 44
- 1.314 4 5 ping 50000 ------- 0 0.0 5.0 -1 44
r 1.328 4 5 ping 50000 ------- 0 0.0 5.0 -1 44
+ 1.328 5 4 ping 64 ------- 0 5.0 0.0 -1 45
- 1.328 5 4 ping 64 ------- 0 5.0 0.0 -1 45
r 1.338005 5 4 ping 64 ------- 0 5.0 0.0 -1 45
+ 1.338005 4 0 ping 64 ------- 0 5.0 0.0 -1 45
- 1.338005 4 0 ping 64 ------- 0 5.0 0.0 -1 45
r 1.34801 4 0 ping 64 ------- 0 5.0 0.0 -1 45
+ 1.4 0 4 ping 50000 ------- 0 0.0 5.0 -1 46
- 1.4 0 4 ping 50000 ------- 0 0.0 5.0 -1 46
r 1.414 0 4 ping 50000 ------- 0 0.0 5.0 -1 46
+ 1.414 4 5 ping 50000 ------- 0 0.0 5.0 -1 46
- 1.414 4 5 ping 50000 ------- 0 0.0 5.0 -1 46
r 1.428 4 5 ping 50000 ------- 0 0.0 5.0 -1 46
+ 1.428 5 4 ping 64 ------- 0 5.0 0.0 -1 47
- 1.428 5 4 ping 64 ------- 0 5.0 0.0 -1 47
r 1.438005 5 4 ping 64 ------- 0 5.0 0.0 -1 47
+ 1.438005 4 0 ping 64 ------- 0 5.0 0.0 -1 47
- 1.438005 4 0 ping 64 ------- 0 5.0 0.0 -1 47
r 1.44801 4 0 ping 64 ------- 0 5.0 0.0 -1 47
+ 1.5 0 4 ping 50000 ------- 0 0.0 5.0 -1 48
- 1.5 0 4 ping 50000 ------- 0 0.0 5.0 -1 48
r 1.514 0 4 ping 50000 ------- 0 0.0 5.0 -1 48
+ 1.514 4 5 ping 50000 ------- 0 0.0 5.0 -1 48
- 1.514 4 5 ping 50000 ------- 0 0.0 5.0 -1 48
r 1.528 4 5 ping 50000 ------- 0 0.0 5.0 -1 48
+ 1.528 5 4 ping 64 ------- 0 5.0 0.0 -1 49
- 1.528 5 4 ping 64 ------- 0 5.0 0.0 -1 49
r 1.538005 5 4 ping 64 ------- 0 5.0 0.0 -1 49
+ 1.538005 4 0 ping 64 ------- 0 5.0 0.0 -1 49
- 1.538005 4 0 ping 64 ------- 0 5.0 0.0 -1 49
r 1.54801 4 0 ping 64 ------- 0 5.0 0.0 -1 49
+ 1.6 0 4 ping 50000 ------- 0 0.0 5.0 -1 50
- 1.6 0 4 ping 50000 ------- 0 0.0 5.0 -1 50
r 1.614 0 4 ping 50000 ------- 0 0.0 5.0 -1 50
+ 1.614 4 5 ping 50000 ------- 0 0.0 5.0 -1 50
- 1.614 4 5 ping 50000 ------- 0 0.0 5.0 -1 50
r 1.628 4 5 ping 50000 ------- 0 0.0 5.0 -1 50
+ 1.628 5 4 ping 64 ------- 0 5.0 0.0 -1 51
- 1.628 5 4 ping 64 ------- 0 5.0 0.0 -1 51
r 1.638005 5 4 ping 64 ------- 0 5.0 0.0 -1 51
+ 1.638005 4 0 ping 64 ------- 0 5.0 0.0 -1 51
- 1.638005 4 0 ping 64 ------- 0 5.0 0.0 -1 51
r 1.64801 4 0 ping 64 ------- 0 5.0 0.0 -1 51
+ 1.7 0 4 ping 50000 ------- 0 0.0 5.0 -1 52
- 1.7 0 4 ping 50000 ------- 0 0.0 5.0 -1 52
r 1.714 0 4 ping 50000 ------- 0 0.0 5.0 -1 52
+ 1.714 4 5 ping 50000 ------- 0 0.0 5.0 -1 52
- 1.714 4 5 ping 50000 ------- 0 0.0 5.0 -1 52
r 1.728 4 5 ping 50000 ------- 0 0.0 5.0 -1 52
+ 1.728 5 4 ping 64 ------- 0 5.0 0.0 -1 53
- 1.728 5 4 ping 64 ------- 0 5.0 0.0 -1 53
r 1.738005 5 4 ping 64 ------- 0 5.0 0.0 -1 53
+ 1.738005 4 0 ping 64 ------- 0 5.0 0.0 -1 53
- 1.738005 4 0 ping 64 ------- 0 5.0 0.0 -1 53
r 1.74801 4 0 ping 64 ------- 0 5.0 0.0 -1 53
+ 1.8 0 4 ping 50000 ------- 0 0.0 5.0 -1 54
- 1.8 0 4 ping 50000 ------- 0 0.0 5.0 -1 54
r 1.814 0 4 ping 50000 ------- 0 0.0 5.0 -1 54
+ 1.814 4 5 ping 50000 ------- 0 0.0 5.0 -1 54
- 1.814 4 5 ping 50000 ------- 0 0.0 5.0 -1 54
r 1.828 4 5 ping 50000 ------- 0 0.0 5.0 -1 54
+ 1.828 5 4 ping 64 ------- 0 5.0 0.0 -1 55
- 1.828 5 4 ping 64 ------- 0 5.0 0.0 -1 55
r 1.838005 5 4 ping 64 ------- 0 5.0 0.0 -1 55
+ 1.838005 4 0 ping 64 ------- 0 5.0 0.0 -1 55
- 1.838005 4 0 ping 64 ------- 0 5.0 0.0 -1 55
r 1.84801 4 0 ping 64 ------- 0 5.0 0.0 -1 55
+ 1.9 0 4 ping 50000 ------- 0 0.0 5.0 -1 56
- 1.9 0 4 ping 50000 ------- 0 0.0 5.0 -1 56
r 1.914 0 4 ping 50000 ------- 0 0.0 5.0 -1 56
+ 1.914 4 5 ping 50000 ------- 0 0.0 5.0 -1 56
- 1.914 4 5 ping 50000 ------- 0 0.0 5.0 -1 56
r 1.928 4 5 ping 50000 ------- 0 0.0 5.0 -1 56
+ 1.928 5 4 ping 64 ------- 0 5.0 0.0 -1 57
- 1.928 5 4 ping 64 ------- 0 5.0 0.0 -1 57
r 1.938005 5 4 ping 64 ------- 0 5.0 0.0 -1 57
+ 1.938005 4 0 ping 64 ------- 0 5.0 0.0 -1 57
- 1.938005 4 0 ping 64 ------- 0 5.0 0.0 -1 57
r 1.94801 4 0 ping 64 ------- 0 5.0 0.0 -1 57
