+ 1 0 2 tcp 40 ------- 0 0.0 4.0 0 0
- 1 0 2 tcp 40 ------- 0 0.0 4.0 0 0
r 1.010003 0 2 tcp 40 ------- 0 0.0 4.0 0 0
+ 1.010003 2 3 tcp 40 ------- 0 0.0 4.0 0 0
- 1.010003 2 3 tcp 40 ------- 0 0.0 4.0 0 0
r 1.020006 2 3 tcp 40 ------- 0 0.0 4.0 0 0
+ 1.020006 3 4 tcp 40 ------- 0 0.0 4.0 0 0
- 1.020006 3 4 tcp 40 ------- 0 0.0 4.0 0 0
r 1.03001 3 4 tcp 40 ------- 0 0.0 4.0 0 0
+ 1.03001 4 3 ack 40 ------- 0 4.0 0.0 0 1
- 1.03001 4 3 ack 40 ------- 0 4.0 0.0 0 1
r 1.040013 4 3 ack 40 ------- 0 4.0 0.0 0 1
+ 1.040013 3 2 ack 40 ------- 0 4.0 0.0 0 1
- 1.040013 3 2 ack 40 ------- 0 4.0 0.0 0 1
r 1.050016 3 2 ack 40 ------- 0 4.0 0.0 0 1
+ 1.050016 2 0 ack 40 ------- 0 4.0 0.0 0 1
- 1.050016 2 0 ack 40 ------- 0 4.0 0.0 0 1
r 1.060019 2 0 ack 40 ------- 0 4.0 0.0 0 1
+ 1.060019 0 2 tcp 1540 ------- 0 0.0 4.0 1 2
- 1.060019 0 2 tcp 1540 ------- 0 0.0 4.0 1 2
+ 1.060019 0 2 tcp 1540 ------- 0 0.0 4.0 2 3
- 1.060142 0 2 tcp 1540 ------- 0 0.0 4.0 2 3
r 1.070142 0 2 tcp 1540 ------- 0 0.0 4.0 1 2
+ 1.070142 2 3 tcp 1540 ------- 0 0.0 4.0 1 2
- 1.070142 2 3 tcp 1540 ------- 0 0.0 4.0 1 2
r 1.070266 0 2 tcp 1540 ------- 0 0.0 4.0 2 3
+ 1.070266 2 3 tcp 1540 ------- 0 0.0 4.0 2 3
- 1.070266 2 3 tcp 1540 ------- 0 0.0 4.0 2 3
r 1.080266 2 3 tcp 1540 ------- 0 0.0 4.0 1 2
+ 1.080266 3 4 tcp 1540 ------- 0 0.0 4.0 1 2
- 1.080266 3 4 tcp 1540 ------- 0 0.0 4.0 1 2
r 1.080389 2 3 tcp 1540 ------- 0 0.0 4.0 2 3
+ 1.080389 3 4 tcp 1540 ------- 0 0.0 4.0 2 3
- 1.080389 3 4 tcp 1540 ------- 0 0.0 4.0 2 3
r 1.090389 3 4 tcp 1540 ------- 0 0.0 4.0 1 2
+ 1.090389 4 3 ack 40 ------- 0 4.0 0.0 1 4
- 1.090389 4 3 ack 40 ------- 0 4.0 0.0 1 4
r 1.090512 3 4 tcp 1540 ------- 0 0.0 4.0 2 3
+ 1.090512 4 3 ack 40 ------- 0 4.0 0.0 2 5
- 1.090512 4 3 ack 40 ------- 0 4.0 0.0 2 5
r 1.100392 4 3 ack 40 ------- 0 4.0 0.0 1 4
+ 1.100392 3 2 ack 40 ------- 0 4.0 0.0 1 4
- 1.100392 3 2 ack 40 ------- 0 4.0 0.0 1 4
r 1.100515 4 3 ack 40 ------- 0 4.0 0.0 2 5
+ 1.100515 3 2 ack 40 ------- 0 4.0 0.0 2 5
- 1.100515 3 2 ack 40 ------- 0 4.0 0.0 2 5
r 1.110395 3 2 ack 40 ------- 0 4.0 0.0 1 4
+ 1.110395 2 0 ack 40 ------- 0 4.0 0.0 1 4
- 1.110395 2 0 ack 40 ------- 0 4.0 0.0 1 4
r 1.110518 3 2 ack 40 ------- 0 4.0 0.0 2 5
+ 1.110518 2 0 ack 40 ------- 0 4.0 0.0 2 5
- 1.110518 2 0 ack 40 ------- 0 4.0 0.0 2 5
r 1.120398 2 0 ack 40 ------- 0 4.0 0.0 1 4
+ 1.120398 0 2 tcp 1540 ------- 0 0.0 4.0 3 6
- 1.120398 0 2 tcp 1540 ------- 0 0.0 4.0 3 6
+ 1.120398 0 2 tcp 1540 ------- 0 0.0 4.0 4 7
r 1.120522 2 0 ack 40 ------- 0 4.0 0.0 2 5
+ 1.120522 0 2 tcp 1540 ------- 0 0.0 4.0 5 8
+ 1.120522 0 2 tcp 1540 ------- 0 0.0 4.0 6 9
- 1.120522 0 2 tcp 1540 ------- 0 0.0 4.0 4 7
- 1.120645 0 2 tcp 1540 ------- 0 0.0 4.0 5 8
- 1.120768 0 2 tcp 1540 ------- 0 0.0 4.0 6 9
r 1.130522 0 2 tcp 1540 ------- 0 0.0 4.0 3 6
+ 1.130522 2 3 tcp 1540 ------- 0 0.0 4.0 3 6
- 1.130522 2 3 tcp 1540 ------- 0 0.0 4.0 3 6
r 1.130645 0 2 tcp 1540 ------- 0 0.0 4.0 4 7
+ 1.130645 2 3 tcp 1540 ------- 0 0.0 4.0 4 7
- 1.130645 2 3 tcp 1540 ------- 0 0.0 4.0 4 7
r 1.130768 0 2 tcp 1540 ------- 0 0.0 4.0 5 8
+ 1.130768 2 3 tcp 1540 ------- 0 0.0 4.0 5 8
- 1.130768 2 3 tcp 1540 ------- 0 0.0 4.0 5 8
r 1.130891 0 2 tcp 1540 ------- 0 0.0 4.0 6 9
+ 1.130891 2 3 tcp 1540 ------- 0 0.0 4.0 6 9
- 1.130891 2 3 tcp 1540 ------- 0 0.0 4.0 6 9
r 1.140645 2 3 tcp 1540 ------- 0 0.0 4.0 3 6
+ 1.140645 3 4 tcp 1540 ------- 0 0.0 4.0 3 6
- 1.140645 3 4 tcp 1540 ------- 0 0.0 4.0 3 6
r 1.140768 2 3 tcp 1540 ------- 0 0.0 4.0 4 7
+ 1.140768 3 4 tcp 1540 ------- 0 0.0 4.0 4 7
- 1.140768 3 4 tcp 1540 ------- 0 0.0 4.0 4 7
r 1.140891 2 3 tcp 1540 ------- 0 0.0 4.0 5 8
+ 1.140891 3 4 tcp 1540 ------- 0 0.0 4.0 5 8
- 1.140891 3 4 tcp 1540 ------- 0 0.0 4.0 5 8
r 1.141014 2 3 tcp 1540 ------- 0 0.0 4.0 6 9
+ 1.141014 3 4 tcp 1540 ------- 0 0.0 4.0 6 9
- 1.141014 3 4 tcp 1540 ------- 0 0.0 4.0 6 9
r 1.150768 3 4 tcp 1540 ------- 0 0.0 4.0 3 6
+ 1.150768 4 3 ack 40 ------- 0 4.0 0.0 3 10
- 1.150768 4 3 ack 40 ------- 0 4.0 0.0 3 10
r 1.150891 3 4 tcp 1540 ------- 0 0.0 4.0 4 7
+ 1.150891 4 3 ack 40 ------- 0 4.0 0.0 4 11
- 1.150891 4 3 ack 40 ------- 0 4.0 0.0 4 11
r 1.151014 3 4 tcp 1540 ------- 0 0.0 4.0 5 8
+ 1.151014 4 3 ack 40 ------- 0 4.0 0.0 5 12
- 1.151014 4 3 ack 40 ------- 0 4.0 0.0 5 12
r 1.151138 3 4 tcp 1540 ------- 0 0.0 4.0 6 9
+ 1.151138 4 3 ack 40 ------- 0 4.0 0.0 6 13
- 1.151138 4 3 ack 40 ------- 0 4.0 0.0 6 13
r 1.160771 4 3 ack 40 ------- 0 4.0 0.0 3 10
+ 1.160771 3 2 ack 40 ------- 0 4.0 0.0 3 10
- 1.160771 3 2 ack 40 ------- 0 4.0 0.0 3 10
r 1.160894 4 3 ack 40 ------- 0 4.0 0.0 4 11
+ 1.160894 3 2 ack 40 ------- 0 4.0 0.0 4 11
- 1.160894 3 2 ack 40 ------- 0 4.0 0.0 4 11
r 1.161018 4 3 ack 40 ------- 0 4.0 0.0 5 12
+ 1.161018 3 2 ack 40 ------- 0 4.0 0.0 5 12
- 1.161018 3 2 ack 40 ------- 0 4.0 0.0 5 12
r 1.161141 4 3 ack 40 ------- 0 4.0 0.0 6 13
+ 1.161141 3 2 ack 40 ------- 0 4.0 0.0 6 13
- 1.161141 3 2 ack 40 ------- 0 4.0 0.0 6 13
r 1.170774 3 2 ack 40 ------- 0 4.0 0.0 3 10
+ 1.170774 2 0 ack 40 ------- 0 4.0 0.0 3 10
- 1.170774 2 0 ack 40 ------- 0 4.0 0.0 3 10
r 1.170898 3 2 ack 40 ------- 0 4.0 0.0 4 11
+ 1.170898 2 0 ack 40 ------- 0 4.0 0.0 4 11
- 1.170898 2 0 ack 40 ------- 0 4.0 0.0 4 11
r 1.171021 3 2 ack 40 ------- 0 4.0 0.0 5 12
+ 1.171021 2 0 ack 40 ------- 0 4.0 0.0 5 12
- 1.171021 2 0 ack 40 ------- 0 4.0 0.0 5 12
r 1.171144 3 2 ack 40 ------- 0 4.0 0.0 6 13
+ 1.171144 2 0 ack 40 ------- 0 4.0 0.0 6 13
- 1.171144 2 0 ack 40 ------- 0 4.0 0.0 6 13
r 1.180778 2 0 ack 40 ------- 0 4.0 0.0 3 10
+ 1.180778 0 2 tcp 1540 ------- 0 0.0 4.0 7 14
- 1.180778 0 2 tcp 1540 ------- 0 0.0 4.0 7 14
+ 1.180778 0 2 tcp 1540 ------- 0 0.0 4.0 8 15
r 1.180901 2 0 ack 40 ------- 0 4.0 0.0 4 11
+ 1.180901 0 2 tcp 1540 ------- 0 0.0 4.0 9 16
+ 1.180901 0 2 tcp 1540 ------- 0 0.0 4.0 10 17
- 1.180901 0 2 tcp 1540 ------- 0 0.0 4.0 8 15
r 1.181024 2 0 ack 40 ------- 0 4.0 0.0 5 12
+ 1.181024 0 2 tcp 1540 ------- 0 0.0 4.0 11 18
+ 1.181024 0 2 tcp 1540 ------- 0 0.0 4.0 12 19
- 1.181024 0 2 tcp 1540 ------- 0 0.0 4.0 9 16
r 1.181147 2 0 ack 40 ------- 0 4.0 0.0 6 13
+ 1.181147 0 2 tcp 1540 ------- 0 0.0 4.0 13 20
+ 1.181147 0 2 tcp 1540 ------- 0 0.0 4.0 14 21
- 1.181147 0 2 tcp 1540 ------- 0 0.0 4.0 10 17
- 1.18127 0 2 tcp 1540 ------- 0 0.0 4.0 11 18
- 1.181394 0 2 tcp 1540 ------- 0 0.0 4.0 12 19
- 1.181517 0 2 tcp 1540 ------- 0 0.0 4.0 13 20
- 1.18164 0 2 tcp 1540 ------- 0 0.0 4.0 14 21
r 1.190901 0 2 tcp 1540 ------- 0 0.0 4.0 7 14
+ 1.190901 2 3 tcp 1540 ------- 0 0.0 4.0 7 14
- 1.190901 2 3 tcp 1540 ------- 0 0.0 4.0 7 14
r 1.191024 0 2 tcp 1540 ------- 0 0.0 4.0 8 15
+ 1.191024 2 3 tcp 1540 ------- 0 0.0 4.0 8 15
- 1.191024 2 3 tcp 1540 ------- 0 0.0 4.0 8 15
r 1.191147 0 2 tcp 1540 ------- 0 0.0 4.0 9 16
+ 1.191147 2 3 tcp 1540 ------- 0 0.0 4.0 9 16
- 1.191147 2 3 tcp 1540 ------- 0 0.0 4.0 9 16
r 1.19127 0 2 tcp 1540 ------- 0 0.0 4.0 10 17
+ 1.19127 2 3 tcp 1540 ------- 0 0.0 4.0 10 17
- 1.19127 2 3 tcp 1540 ------- 0 0.0 4.0 10 17
r 1.191394 0 2 tcp 1540 ------- 0 0.0 4.0 11 18
+ 1.191394 2 3 tcp 1540 ------- 0 0.0 4.0 11 18
- 1.191394 2 3 tcp 1540 ------- 0 0.0 4.0 11 18
r 1.191517 0 2 tcp 1540 ------- 0 0.0 4.0 12 19
+ 1.191517 2 3 tcp 1540 ------- 0 0.0 4.0 12 19
- 1.191517 2 3 tcp 1540 ------- 0 0.0 4.0 12 19
r 1.19164 0 2 tcp 1540 ------- 0 0.0 4.0 13 20
+ 1.19164 2 3 tcp 1540 ------- 0 0.0 4.0 13 20
- 1.19164 2 3 tcp 1540 ------- 0 0.0 4.0 13 20
r 1.191763 0 2 tcp 1540 ------- 0 0.0 4.0 14 21
+ 1.191763 2 3 tcp 1540 ------- 0 0.0 4.0 14 21
- 1.191763 2 3 tcp 1540 ------- 0 0.0 4.0 14 21
r 1.201024 2 3 tcp 1540 ------- 0 0.0 4.0 7 14
+ 1.201024 3 4 tcp 1540 ------- 0 0.0 4.0 7 14
- 1.201024 3 4 tcp 1540 ------- 0 0.0 4.0 7 14
r 1.201147 2 3 tcp 1540 ------- 0 0.0 4.0 8 15
+ 1.201147 3 4 tcp 1540 ------- 0 0.0 4.0 8 15
- 1.201147 3 4 tcp 1540 ------- 0 0.0 4.0 8 15
r 1.20127 2 3 tcp 1540 ------- 0 0.0 4.0 9 16
+ 1.20127 3 4 tcp 1540 ------- 0 0.0 4.0 9 16
- 1.20127 3 4 tcp 1540 ------- 0 0.0 4.0 9 16
r 1.201394 2 3 tcp 1540 ------- 0 0.0 4.0 10 17
+ 1.201394 3 4 tcp 1540 ------- 0 0.0 4.0 10 17
- 1.201394 3 4 tcp 1540 ------- 0 0.0 4.0 10 17
r 1.201517 2 3 tcp 1540 ------- 0 0.0 4.0 11 18
+ 1.201517 3 4 tcp 1540 ------- 0 0.0 4.0 11 18
- 1.201517 3 4 tcp 1540 ------- 0 0.0 4.0 11 18
r 1.20164 2 3 tcp 1540 ------- 0 0.0 4.0 12 19
+ 1.20164 3 4 tcp 1540 ------- 0 0.0 4.0 12 19
- 1.20164 3 4 tcp 1540 ------- 0 0.0 4.0 12 19
r 1.201763 2 3 tcp 1540 ------- 0 0.0 4.0 13 20
+ 1.201763 3 4 tcp 1540 ------- 0 0.0 4.0 13 20
- 1.201763 3 4 tcp 1540 ------- 0 0.0 4.0 13 20
r 1.201886 2 3 tcp 1540 ------- 0 0.0 4.0 14 21
+ 1.201886 3 4 tcp 1540 ------- 0 0.0 4.0 14 21
- 1.201886 3 4 tcp 1540 ------- 0 0.0 4.0 14 21
r 1.211147 3 4 tcp 1540 ------- 0 0.0 4.0 7 14
+ 1.211147 4 3 ack 40 ------- 0 4.0 0.0 7 22
- 1.211147 4 3 ack 40 ------- 0 4.0 0.0 7 22
r 1.21127 3 4 tcp 1540 ------- 0 0.0 4.0 8 15
+ 1.21127 4 3 ack 40 ------- 0 4.0 0.0 8 23
- 1.21127 4 3 ack 40 ------- 0 4.0 0.0 8 23
r 1.211394 3 4 tcp 1540 ------- 0 0.0 4.0 9 16
+ 1.211394 4 3 ack 40 ------- 0 4.0 0.0 9 24
- 1.211394 4 3 ack 40 ------- 0 4.0 0.0 9 24
r 1.211517 3 4 tcp 1540 ------- 0 0.0 4.0 10 17
+ 1.211517 4 3 ack 40 ------- 0 4.0 0.0 10 25
- 1.211517 4 3 ack 40 ------- 0 4.0 0.0 10 25
r 1.21164 3 4 tcp 1540 ------- 0 0.0 4.0 11 18
+ 1.21164 4 3 ack 40 ------- 0 4.0 0.0 11 26
- 1.21164 4 3 ack 40 ------- 0 4.0 0.0 11 26
r 1.211763 3 4 tcp 1540 ------- 0 0.0 4.0 12 19
+ 1.211763 4 3 ack 40 ------- 0 4.0 0.0 12 27
- 1.211763 4 3 ack 40 ------- 0 4.0 0.0 12 27
r 1.211886 3 4 tcp 1540 ------- 0 0.0 4.0 13 20
+ 1.211886 4 3 ack 40 ------- 0 4.0 0.0 13 28
- 1.211886 4 3 ack 40 ------- 0 4.0 0.0 13 28
r 1.21201 3 4 tcp 1540 ------- 0 0.0 4.0 14 21
+ 1.21201 4 3 ack 40 ------- 0 4.0 0.0 14 29
- 1.21201 4 3 ack 40 ------- 0 4.0 0.0 14 29
r 1.22115 4 3 ack 40 ------- 0 4.0 0.0 7 22
+ 1.22115 3 2 ack 40 ------- 0 4.0 0.0 7 22
- 1.22115 3 2 ack 40 ------- 0 4.0 0.0 7 22
r 1.221274 4 3 ack 40 ------- 0 4.0 0.0 8 23
+ 1.221274 3 2 ack 40 ------- 0 4.0 0.0 8 23
- 1.221274 3 2 ack 40 ------- 0 4.0 0.0 8 23
r 1.221397 4 3 ack 40 ------- 0 4.0 0.0 9 24
+ 1.221397 3 2 ack 40 ------- 0 4.0 0.0 9 24
- 1.221397 3 2 ack 40 ------- 0 4.0 0.0 9 24
r 1.22152 4 3 ack 40 ------- 0 4.0 0.0 10 25
+ 1.22152 3 2 ack 40 ------- 0 4.0 0.0 10 25
- 1.22152 3 2 ack 40 ------- 0 4.0 0.0 10 25
r 1.221643 4 3 ack 40 ------- 0 4.0 0.0 11 26
+ 1.221643 3 2 ack 40 ------- 0 4.0 0.0 11 26
- 1.221643 3 2 ack 40 ------- 0 4.0 0.0 11 26
r 1.221766 4 3 ack 40 ------- 0 4.0 0.0 12 27
+ 1.221766 3 2 ack 40 ------- 0 4.0 0.0 12 27
- 1.221766 3 2 ack 40 ------- 0 4.0 0.0 12 27
r 1.22189 4 3 ack 40 ------- 0 4.0 0.0 13 28
+ 1.22189 3 2 ack 40 ------- 0 4.0 0.0 13 28
- 1.22189 3 2 ack 40 ------- 0 4.0 0.0 13 28
r 1.222013 4 3 ack 40 ------- 0 4.0 0.0 14 29
+ 1.222013 3 2 ack 40 ------- 0 4.0 0.0 14 29
- 1.222013 3 2 ack 40 ------- 0 4.0 0.0 14 29
r 1.231154 3 2 ack 40 ------- 0 4.0 0.0 7 22
+ 1.231154 2 0 ack 40 ------- 0 4.0 0.0 7 22
- 1.231154 2 0 ack 40 ------- 0 4.0 0.0 7 22
r 1.231277 3 2 ack 40 ------- 0 4.0 0.0 8 23
+ 1.231277 2 0 ack 40 ------- 0 4.0 0.0 8 23
- 1.231277 2 0 ack 40 ------- 0 4.0 0.0 8 23
r 1.2314 3 2 ack 40 ------- 0 4.0 0.0 9 24
+ 1.2314 2 0 ack 40 ------- 0 4.0 0.0 9 24
- 1.2314 2 0 ack 40 ------- 0 4.0 0.0 9 24
r 1.231523 3 2 ack 40 ------- 0 4.0 0.0 10 25
+ 1.231523 2 0 ack 40 ------- 0 4.0 0.0 10 25
- 1.231523 2 0 ack 40 ------- 0 4.0 0.0 10 25
r 1.231646 3 2 ack 40 ------- 0 4.0 0.0 11 26
+ 1.231646 2 0 ack 40 ------- 0 4.0 0.0 11 26
- 1.231646 2 0 ack 40 ------- 0 4.0 0.0 11 26
r 1.23177 3 2 ack 40 ------- 0 4.0 0.0 12 27
+ 1.23177 2 0 ack 40 ------- 0 4.0 0.0 12 27
- 1.23177 2 0 ack 40 ------- 0 4.0 0.0 12 27
r 1.231893 3 2 ack 40 ------- 0 4.0 0.0 13 28
+ 1.231893 2 0 ack 40 ------- 0 4.0 0.0 13 28
- 1.231893 2 0 ack 40 ------- 0 4.0 0.0 13 28
r 1.232016 3 2 ack 40 ------- 0 4.0 0.0 14 29
+ 1.232016 2 0 ack 40 ------- 0 4.0 0.0 14 29
- 1.232016 2 0 ack 40 ------- 0 4.0 0.0 14 29
r 1.241157 2 0 ack 40 ------- 0 4.0 0.0 7 22
+ 1.241157 0 2 tcp 1540 ------- 0 0.0 4.0 15 30
- 1.241157 0 2 tcp 1540 ------- 0 0.0 4.0 15 30
+ 1.241157 0 2 tcp 1540 ------- 0 0.0 4.0 16 31
r 1.24128 2 0 ack 40 ------- 0 4.0 0.0 8 23
+ 1.24128 0 2 tcp 1540 ------- 0 0.0 4.0 17 32
+ 1.24128 0 2 tcp 1540 ------- 0 0.0 4.0 18 33
- 1.24128 0 2 tcp 1540 ------- 0 0.0 4.0 16 31
r 1.241403 2 0 ack 40 ------- 0 4.0 0.0 9 24
+ 1.241403 0 2 tcp 1540 ------- 0 0.0 4.0 19 34
+ 1.241403 0 2 tcp 1540 ------- 0 0.0 4.0 20 35
- 1.241403 0 2 tcp 1540 ------- 0 0.0 4.0 17 32
r 1.241526 2 0 ack 40 ------- 0 4.0 0.0 10 25
+ 1.241526 0 2 tcp 1540 ------- 0 0.0 4.0 21 36
+ 1.241526 0 2 tcp 1540 ------- 0 0.0 4.0 22 37
- 1.241526 0 2 tcp 1540 ------- 0 0.0 4.0 18 33
r 1.24165 2 0 ack 40 ------- 0 4.0 0.0 11 26
+ 1.24165 0 2 tcp 1540 ------- 0 0.0 4.0 23 38
+ 1.24165 0 2 tcp 1540 ------- 0 0.0 4.0 24 39
- 1.24165 0 2 tcp 1540 ------- 0 0.0 4.0 19 34
r 1.241773 2 0 ack 40 ------- 0 4.0 0.0 12 27
+ 1.241773 0 2 tcp 1540 ------- 0 0.0 4.0 25 40
+ 1.241773 0 2 tcp 1540 ------- 0 0.0 4.0 26 41
- 1.241773 0 2 tcp 1540 ------- 0 0.0 4.0 20 35
r 1.241896 2 0 ack 40 ------- 0 4.0 0.0 13 28
+ 1.241896 0 2 tcp 1540 ------- 0 0.0 4.0 27 42
+ 1.241896 0 2 tcp 1540 ------- 0 0.0 4.0 28 43
- 1.241896 0 2 tcp 1540 ------- 0 0.0 4.0 21 36
r 1.242019 2 0 ack 40 ------- 0 4.0 0.0 14 29
+ 1.242019 0 2 tcp 1540 ------- 0 0.0 4.0 29 44
+ 1.242019 0 2 tcp 1540 ------- 0 0.0 4.0 30 45
- 1.242019 0 2 tcp 1540 ------- 0 0.0 4.0 22 37
- 1.242142 0 2 tcp 1540 ------- 0 0.0 4.0 23 38
- 1.242266 0 2 tcp 1540 ------- 0 0.0 4.0 24 39
- 1.242389 0 2 tcp 1540 ------- 0 0.0 4.0 25 40
- 1.242512 0 2 tcp 1540 ------- 0 0.0 4.0 26 41
- 1.242635 0 2 tcp 1540 ------- 0 0.0 4.0 27 42
- 1.242758 0 2 tcp 1540 ------- 0 0.0 4.0 28 43
- 1.242882 0 2 tcp 1540 ------- 0 0.0 4.0 29 44
- 1.243005 0 2 tcp 1540 ------- 0 0.0 4.0 30 45
r 1.25128 0 2 tcp 1540 ------- 0 0.0 4.0 15 30
+ 1.25128 2 3 tcp 1540 ------- 0 0.0 4.0 15 30
- 1.25128 2 3 tcp 1540 ------- 0 0.0 4.0 15 30
r 1.251403 0 2 tcp 1540 ------- 0 0.0 4.0 16 31
+ 1.251403 2 3 tcp 1540 ------- 0 0.0 4.0 16 31
- 1.251403 2 3 tcp 1540 ------- 0 0.0 4.0 16 31
r 1.251526 0 2 tcp 1540 ------- 0 0.0 4.0 17 32
+ 1.251526 2 3 tcp 1540 ------- 0 0.0 4.0 17 32
- 1.251526 2 3 tcp 1540 ------- 0 0.0 4.0 17 32
r 1.25165 0 2 tcp 1540 ------- 0 0.0 4.0 18 33
+ 1.25165 2 3 tcp 1540 ------- 0 0.0 4.0 18 33
- 1.25165 2 3 tcp 1540 ------- 0 0.0 4.0 18 33
r 1.251773 0 2 tcp 1540 ------- 0 0.0 4.0 19 34
+ 1.251773 2 3 tcp 1540 ------- 0 0.0 4.0 19 34
- 1.251773 2 3 tcp 1540 ------- 0 0.0 4.0 19 34
r 1.251896 0 2 tcp 1540 ------- 0 0.0 4.0 20 35
+ 1.251896 2 3 tcp 1540 ------- 0 0.0 4.0 20 35
- 1.251896 2 3 tcp 1540 ------- 0 0.0 4.0 20 35
r 1.252019 0 2 tcp 1540 ------- 0 0.0 4.0 21 36
+ 1.252019 2 3 tcp 1540 ------- 0 0.0 4.0 21 36
- 1.252019 2 3 tcp 1540 ------- 0 0.0 4.0 21 36
r 1.252142 0 2 tcp 1540 ------- 0 0.0 4.0 22 37
+ 1.252142 2 3 tcp 1540 ------- 0 0.0 4.0 22 37
- 1.252142 2 3 tcp 1540 ------- 0 0.0 4.0 22 37
r 1.252266 0 2 tcp 1540 ------- 0 0.0 4.0 23 38
+ 1.252266 2 3 tcp 1540 ------- 0 0.0 4.0 23 38
- 1.252266 2 3 tcp 1540 ------- 0 0.0 4.0 23 38
r 1.252389 0 2 tcp 1540 ------- 0 0.0 4.0 24 39
+ 1.252389 2 3 tcp 1540 ------- 0 0.0 4.0 24 39
- 1.252389 2 3 tcp 1540 ------- 0 0.0 4.0 24 39
r 1.252512 0 2 tcp 1540 ------- 0 0.0 4.0 25 40
+ 1.252512 2 3 tcp 1540 ------- 0 0.0 4.0 25 40
- 1.252512 2 3 tcp 1540 ------- 0 0.0 4.0 25 40
r 1.252635 0 2 tcp 1540 ------- 0 0.0 4.0 26 41
+ 1.252635 2 3 tcp 1540 ------- 0 0.0 4.0 26 41
- 1.252635 2 3 tcp 1540 ------- 0 0.0 4.0 26 41
r 1.252758 0 2 tcp 1540 ------- 0 0.0 4.0 27 42
+ 1.252758 2 3 tcp 1540 ------- 0 0.0 4.0 27 42
- 1.252758 2 3 tcp 1540 ------- 0 0.0 4.0 27 42
r 1.252882 0 2 tcp 1540 ------- 0 0.0 4.0 28 43
+ 1.252882 2 3 tcp 1540 ------- 0 0.0 4.0 28 43
- 1.252882 2 3 tcp 1540 ------- 0 0.0 4.0 28 43
r 1.253005 0 2 tcp 1540 ------- 0 0.0 4.0 29 44
+ 1.253005 2 3 tcp 1540 ------- 0 0.0 4.0 29 44
- 1.253005 2 3 tcp 1540 ------- 0 0.0 4.0 29 44
r 1.253128 0 2 tcp 1540 ------- 0 0.0 4.0 30 45
+ 1.253128 2 3 tcp 1540 ------- 0 0.0 4.0 30 45
- 1.253128 2 3 tcp 1540 ------- 0 0.0 4.0 30 45
r 1.261403 2 3 tcp 1540 ------- 0 0.0 4.0 15 30
+ 1.261403 3 4 tcp 1540 ------- 0 0.0 4.0 15 30
- 1.261403 3 4 tcp 1540 ------- 0 0.0 4.0 15 30
r 1.261526 2 3 tcp 1540 ------- 0 0.0 4.0 16 31
+ 1.261526 3 4 tcp 1540 ------- 0 0.0 4.0 16 31
- 1.261526 3 4 tcp 1540 ------- 0 0.0 4.0 16 31
r 1.26165 2 3 tcp 1540 ------- 0 0.0 4.0 17 32
+ 1.26165 3 4 tcp 1540 ------- 0 0.0 4.0 17 32
- 1.26165 3 4 tcp 1540 ------- 0 0.0 4.0 17 32
r 1.261773 2 3 tcp 1540 ------- 0 0.0 4.0 18 33
+ 1.261773 3 4 tcp 1540 ------- 0 0.0 4.0 18 33
- 1.261773 3 4 tcp 1540 ------- 0 0.0 4.0 18 33
r 1.261896 2 3 tcp 1540 ------- 0 0.0 4.0 19 34
+ 1.261896 3 4 tcp 1540 ------- 0 0.0 4.0 19 34
- 1.261896 3 4 tcp 1540 ------- 0 0.0 4.0 19 34
r 1.262019 2 3 tcp 1540 ------- 0 0.0 4.0 20 35
+ 1.262019 3 4 tcp 1540 ------- 0 0.0 4.0 20 35
- 1.262019 3 4 tcp 1540 ------- 0 0.0 4.0 20 35
r 1.262142 2 3 tcp 1540 ------- 0 0.0 4.0 21 36
+ 1.262142 3 4 tcp 1540 ------- 0 0.0 4.0 21 36
- 1.262142 3 4 tcp 1540 ------- 0 0.0 4.0 21 36
r 1.262266 2 3 tcp 1540 ------- 0 0.0 4.0 22 37
+ 1.262266 3 4 tcp 1540 ------- 0 0.0 4.0 22 37
- 1.262266 3 4 tcp 1540 ------- 0 0.0 4.0 22 37
r 1.262389 2 3 tcp 1540 ------- 0 0.0 4.0 23 38
+ 1.262389 3 4 tcp 1540 ------- 0 0.0 4.0 23 38
- 1.262389 3 4 tcp 1540 ------- 0 0.0 4.0 23 38
r 1.262512 2 3 tcp 1540 ------- 0 0.0 4.0 24 39
+ 1.262512 3 4 tcp 1540 ------- 0 0.0 4.0 24 39
- 1.262512 3 4 tcp 1540 ------- 0 0.0 4.0 24 39
r 1.262635 2 3 tcp 1540 ------- 0 0.0 4.0 25 40
+ 1.262635 3 4 tcp 1540 ------- 0 0.0 4.0 25 40
- 1.262635 3 4 tcp 1540 ------- 0 0.0 4.0 25 40
r 1.262758 2 3 tcp 1540 ------- 0 0.0 4.0 26 41
+ 1.262758 3 4 tcp 1540 ------- 0 0.0 4.0 26 41
- 1.262758 3 4 tcp 1540 ------- 0 0.0 4.0 26 41
r 1.262882 2 3 tcp 1540 ------- 0 0.0 4.0 27 42
+ 1.262882 3 4 tcp 1540 ------- 0 0.0 4.0 27 42
- 1.262882 3 4 tcp 1540 ------- 0 0.0 4.0 27 42
r 1.263005 2 3 tcp 1540 ------- 0 0.0 4.0 28 43
+ 1.263005 3 4 tcp 1540 ------- 0 0.0 4.0 28 43
- 1.263005 3 4 tcp 1540 ------- 0 0.0 4.0 28 43
r 1.263128 2 3 tcp 1540 ------- 0 0.0 4.0 29 44
+ 1.263128 3 4 tcp 1540 ------- 0 0.0 4.0 29 44
- 1.263128 3 4 tcp 1540 ------- 0 0.0 4.0 29 44
r 1.263251 2 3 tcp 1540 ------- 0 0.0 4.0 30 45
+ 1.263251 3 4 tcp 1540 ------- 0 0.0 4.0 30 45
- 1.263251 3 4 tcp 1540 ------- 0 0.0 4.0 30 45
r 1.271526 3 4 tcp 1540 ------- 0 0.0 4.0 15 30
+ 1.271526 4 3 ack 40 ------- 0 4.0 0.0 15 46
- 1.271526 4 3 ack 40 ------- 0 4.0 0.0 15 46
r 1.27165 3 4 tcp 1540 ------- 0 0.0 4.0 16 31
+ 1.27165 4 3 ack 40 ------- 0 4.0 0.0 16 47
- 1.27165 4 3 ack 40 ------- 0 4.0 0.0 16 47
r 1.271773 3 4 tcp 1540 ------- 0 0.0 4.0 17 32
+ 1.271773 4 3 ack 40 ------- 0 4.0 0.0 17 48
- 1.271773 4 3 ack 40 ------- 0 4.0 0.0 17 48
r 1.271896 3 4 tcp 1540 ------- 0 0.0 4.0 18 33
+ 1.271896 4 3 ack 40 ------- 0 4.0 0.0 18 49
- 1.271896 4 3 ack 40 ------- 0 4.0 0.0 18 49
r 1.272019 3 4 tcp 1540 ------- 0 0.0 4.0 19 34
+ 1.272019 4 3 ack 40 ------- 0 4.0 0.0 19 50
- 1.272019 4 3 ack 40 ------- 0 4.0 0.0 19 50
r 1.272142 3 4 tcp 1540 ------- 0 0.0 4.0 20 35
+ 1.272142 4 3 ack 40 ------- 0 4.0 0.0 20 51
- 1.272142 4 3 ack 40 ------- 0 4.0 0.0 20 51
r 1.272266 3 4 tcp 1540 ------- 0 0.0 4.0 21 36
+ 1.272266 4 3 ack 40 ------- 0 4.0 0.0 21 52
- 1.272266 4 3 ack 40 ------- 0 4.0 0.0 21 52
r 1.272389 3 4 tcp 1540 ------- 0 0.0 4.0 22 37
+ 1.272389 4 3 ack 40 ------- 0 4.0 0.0 22 53
- 1.272389 4 3 ack 40 ------- 0 4.0 0.0 22 53
r 1.272512 3 4 tcp 1540 ------- 0 0.0 4.0 23 38
+ 1.272512 4 3 ack 40 ------- 0 4.0 0.0 23 54
- 1.272512 4 3 ack 40 ------- 0 4.0 0.0 23 54
r 1.272635 3 4 tcp 1540 ------- 0 0.0 4.0 24 39
+ 1.272635 4 3 ack 40 ------- 0 4.0 0.0 24 55
- 1.272635 4 3 ack 40 ------- 0 4.0 0.0 24 55
r 1.272758 3 4 tcp 1540 ------- 0 0.0 4.0 25 40
+ 1.272758 4 3 ack 40 ------- 0 4.0 0.0 25 56
- 1.272758 4 3 ack 40 ------- 0 4.0 0.0 25 56
r 1.272882 3 4 tcp 1540 ------- 0 0.0 4.0 26 41
+ 1.272882 4 3 ack 40 ------- 0 4.0 0.0 26 57
- 1.272882 4 3 ack 40 ------- 0 4.0 0.0 26 57
r 1.273005 3 4 tcp 1540 ------- 0 0.0 4.0 27 42
+ 1.273005 4 3 ack 40 ------- 0 4.0 0.0 27 58
- 1.273005 4 3 ack 40 ------- 0 4.0 0.0 27 58
r 1.273128 3 4 tcp 1540 ------- 0 0.0 4.0 28 43
+ 1.273128 4 3 ack 40 ------- 0 4.0 0.0 28 59
- 1.273128 4 3 ack 40 ------- 0 4.0 0.0 28 59
r 1.273251 3 4 tcp 1540 ------- 0 0.0 4.0 29 44
+ 1.273251 4 3 ack 40 ------- 0 4.0 0.0 29 60
- 1.273251 4 3 ack 40 ------- 0 4.0 0.0 29 60
r 1.273374 3 4 tcp 1540 ------- 0 0.0 4.0 30 45
+ 1.273374 4 3 ack 40 ------- 0 4.0 0.0 30 61
- 1.273374 4 3 ack 40 ------- 0 4.0 0.0 30 61
r 1.28153 4 3 ack 40 ------- 0 4.0 0.0 15 46
+ 1.28153 3 2 ack 40 ------- 0 4.0 0.0 15 46
- 1.28153 3 2 ack 40 ------- 0 4.0 0.0 15 46
r 1.281653 4 3 ack 40 ------- 0 4.0 0.0 16 47
+ 1.281653 3 2 ack 40 ------- 0 4.0 0.0 16 47
- 1.281653 3 2 ack 40 ------- 0 4.0 0.0 16 47
r 1.281776 4 3 ack 40 ------- 0 4.0 0.0 17 48
+ 1.281776 3 2 ack 40 ------- 0 4.0 0.0 17 48
- 1.281776 3 2 ack 40 ------- 0 4.0 0.0 17 48
r 1.281899 4 3 ack 40 ------- 0 4.0 0.0 18 49
+ 1.281899 3 2 ack 40 ------- 0 4.0 0.0 18 49
- 1.281899 3 2 ack 40 ------- 0 4.0 0.0 18 49
r 1.282022 4 3 ack 40 ------- 0 4.0 0.0 19 50
+ 1.282022 3 2 ack 40 ------- 0 4.0 0.0 19 50
- 1.282022 3 2 ack 40 ------- 0 4.0 0.0 19 50
r 1.282146 4 3 ack 40 ------- 0 4.0 0.0 20 51
+ 1.282146 3 2 ack 40 ------- 0 4.0 0.0 20 51
- 1.282146 3 2 ack 40 ------- 0 4.0 0.0 20 51
r 1.282269 4 3 ack 40 ------- 0 4.0 0.0 21 52
+ 1.282269 3 2 ack 40 ------- 0 4.0 0.0 21 52
- 1.282269 3 2 ack 40 ------- 0 4.0 0.0 21 52
r 1.282392 4 3 ack 40 ------- 0 4.0 0.0 22 53
+ 1.282392 3 2 ack 40 ------- 0 4.0 0.0 22 53
- 1.282392 3 2 ack 40 ------- 0 4.0 0.0 22 53
r 1.282515 4 3 ack 40 ------- 0 4.0 0.0 23 54
+ 1.282515 3 2 ack 40 ------- 0 4.0 0.0 23 54
- 1.282515 3 2 ack 40 ------- 0 4.0 0.0 23 54
r 1.282638 4 3 ack 40 ------- 0 4.0 0.0 24 55
+ 1.282638 3 2 ack 40 ------- 0 4.0 0.0 24 55
- 1.282638 3 2 ack 40 ------- 0 4.0 0.0 24 55
r 1.282762 4 3 ack 40 ------- 0 4.0 0.0 25 56
+ 1.282762 3 2 ack 40 ------- 0 4.0 0.0 25 56
- 1.282762 3 2 ack 40 ------- 0 4.0 0.0 25 56
r 1.282885 4 3 ack 40 ------- 0 4.0 0.0 26 57
+ 1.282885 3 2 ack 40 ------- 0 4.0 0.0 26 57
- 1.282885 3 2 ack 40 ------- 0 4.0 0.0 26 57
r 1.283008 4 3 ack 40 ------- 0 4.0 0.0 27 58
+ 1.283008 3 2 ack 40 ------- 0 4.0 0.0 27 58
- 1.283008 3 2 ack 40 ------- 0 4.0 0.0 27 58
r 1.283131 4 3 ack 40 ------- 0 4.0 0.0 28 59
+ 1.283131 3 2 ack 40 ------- 0 4.0 0.0 28 59
- 1.283131 3 2 ack 40 ------- 0 4.0 0.0 28 59
r 1.283254 4 3 ack 40 ------- 0 4.0 0.0 29 60
+ 1.283254 3 2 ack 40 ------- 0 4.0 0.0 29 60
- 1.283254 3 2 ack 40 ------- 0 4.0 0.0 29 60
r 1.283378 4 3 ack 40 ------- 0 4.0 0.0 30 61
+ 1.283378 3 2 ack 40 ------- 0 4.0 0.0 30 61
- 1.283378 3 2 ack 40 ------- 0 4.0 0.0 30 61
r 1.291533 3 2 ack 40 ------- 0 4.0 0.0 15 46
+ 1.291533 2 0 ack 40 ------- 0 4.0 0.0 15 46
- 1.291533 2 0 ack 40 ------- 0 4.0 0.0 15 46
r 1.291656 3 2 ack 40 ------- 0 4.0 0.0 16 47
+ 1.291656 2 0 ack 40 ------- 0 4.0 0.0 16 47
- 1.291656 2 0 ack 40 ------- 0 4.0 0.0 16 47
r 1.291779 3 2 ack 40 ------- 0 4.0 0.0 17 48
+ 1.291779 2 0 ack 40 ------- 0 4.0 0.0 17 48
- 1.291779 2 0 ack 40 ------- 0 4.0 0.0 17 48
r 1.291902 3 2 ack 40 ------- 0 4.0 0.0 18 49
+ 1.291902 2 0 ack 40 ------- 0 4.0 0.0 18 49
- 1.291902 2 0 ack 40 ------- 0 4.0 0.0 18 49
r 1.292026 3 2 ack 40 ------- 0 4.0 0.0 19 50
+ 1.292026 2 0 ack 40 ------- 0 4.0 0.0 19 50
- 1.292026 2 0 ack 40 ------- 0 4.0 0.0 19 50
r 1.292149 3 2 ack 40 ------- 0 4.0 0.0 20 51
+ 1.292149 2 0 ack 40 ------- 0 4.0 0.0 20 51
- 1.292149 2 0 ack 40 ------- 0 4.0 0.0 20 51
r 1.292272 3 2 ack 40 ------- 0 4.0 0.0 21 52
+ 1.292272 2 0 ack 40 ------- 0 4.0 0.0 21 52
- 1.292272 2 0 ack 40 ------- 0 4.0 0.0 21 52
r 1.292395 3 2 ack 40 ------- 0 4.0 0.0 22 53
+ 1.292395 2 0 ack 40 ------- 0 4.0 0.0 22 53
- 1.292395 2 0 ack 40 ------- 0 4.0 0.0 22 53
r 1.292518 3 2 ack 40 ------- 0 4.0 0.0 23 54
+ 1.292518 2 0 ack 40 ------- 0 4.0 0.0 23 54
- 1.292518 2 0 ack 40 ------- 0 4.0 0.0 23 54
r 1.292642 3 2 ack 40 ------- 0 4.0 0.0 24 55
+ 1.292642 2 0 ack 40 ------- 0 4.0 0.0 24 55
- 1.292642 2 0 ack 40 ------- 0 4.0 0.0 24 55
r 1.292765 3 2 ack 40 ------- 0 4.0 0.0 25 56
+ 1.292765 2 0 ack 40 ------- 0 4.0 0.0 25 56
- 1.292765 2 0 ack 40 ------- 0 4.0 0.0 25 56
r 1.292888 3 2 ack 40 ------- 0 4.0 0.0 26 57
+ 1.292888 2 0 ack 40 ------- 0 4.0 0.0 26 57
- 1.292888 2 0 ack 40 ------- 0 4.0 0.0 26 57
r 1.293011 3 2 ack 40 ------- 0 4.0 0.0 27 58
+ 1.293011 2 0 ack 40 ------- 0 4.0 0.0 27 58
- 1.293011 2 0 ack 40 ------- 0 4.0 0.0 27 58
r 1.293134 3 2 ack 40 ------- 0 4.0 0.0 28 59
+ 1.293134 2 0 ack 40 ------- 0 4.0 0.0 28 59
- 1.293134 2 0 ack 40 ------- 0 4.0 0.0 28 59
r 1.293258 3 2 ack 40 ------- 0 4.0 0.0 29 60
+ 1.293258 2 0 ack 40 ------- 0 4.0 0.0 29 60
- 1.293258 2 0 ack 40 ------- 0 4.0 0.0 29 60
r 1.293381 3 2 ack 40 ------- 0 4.0 0.0 30 61
+ 1.293381 2 0 ack 40 ------- 0 4.0 0.0 30 61
- 1.293381 2 0 ack 40 ------- 0 4.0 0.0 30 61
r 1.301536 2 0 ack 40 ------- 0 4.0 0.0 15 46
+ 1.301536 0 2 tcp 1540 ------- 0 0.0 4.0 31 62
- 1.301536 0 2 tcp 1540 ------- 0 0.0 4.0 31 62
+ 1.301536 0 2 tcp 1540 ------- 0 0.0 4.0 32 63
r 1.301659 2 0 ack 40 ------- 0 4.0 0.0 16 47
+ 1.301659 0 2 tcp 1540 ------- 0 0.0 4.0 33 64
+ 1.301659 0 2 tcp 1540 ------- 0 0.0 4.0 34 65
- 1.301659 0 2 tcp 1540 ------- 0 0.0 4.0 32 63
r 1.301782 2 0 ack 40 ------- 0 4.0 0.0 17 48
+ 1.301782 0 2 tcp 1540 ------- 0 0.0 4.0 35 66
+ 1.301782 0 2 tcp 1540 ------- 0 0.0 4.0 36 67
- 1.301782 0 2 tcp 1540 ------- 0 0.0 4.0 33 64
r 1.301906 2 0 ack 40 ------- 0 4.0 0.0 18 49
+ 1.301906 0 2 tcp 1540 ------- 0 0.0 4.0 37 68
+ 1.301906 0 2 tcp 1540 ------- 0 0.0 4.0 38 69
- 1.301906 0 2 tcp 1540 ------- 0 0.0 4.0 34 65
r 1.302029 2 0 ack 40 ------- 0 4.0 0.0 19 50
+ 1.302029 0 2 tcp 1540 ------- 0 0.0 4.0 39 70
- 1.302029 0 2 tcp 1540 ------- 0 0.0 4.0 35 66
r 1.302152 2 0 ack 40 ------- 0 4.0 0.0 20 51
+ 1.302152 0 2 tcp 1540 ------- 0 0.0 4.0 40 71
- 1.302152 0 2 tcp 1540 ------- 0 0.0 4.0 36 67
r 1.302275 2 0 ack 40 ------- 0 4.0 0.0 21 52
+ 1.302275 0 2 tcp 1540 ------- 0 0.0 4.0 41 72
- 1.302275 0 2 tcp 1540 ------- 0 0.0 4.0 37 68
r 1.302398 2 0 ack 40 ------- 0 4.0 0.0 22 53
+ 1.302398 0 2 tcp 1540 ------- 0 0.0 4.0 42 73
- 1.302398 0 2 tcp 1540 ------- 0 0.0 4.0 38 69
r 1.302522 2 0 ack 40 ------- 0 4.0 0.0 23 54
+ 1.302522 0 2 tcp 1540 ------- 0 0.0 4.0 43 74
- 1.302522 0 2 tcp 1540 ------- 0 0.0 4.0 39 70
r 1.302645 2 0 ack 40 ------- 0 4.0 0.0 24 55
+ 1.302645 0 2 tcp 1540 ------- 0 0.0 4.0 44 75
- 1.302645 0 2 tcp 1540 ------- 0 0.0 4.0 40 71
r 1.302768 2 0 ack 40 ------- 0 4.0 0.0 25 56
+ 1.302768 0 2 tcp 1540 ------- 0 0.0 4.0 45 76
- 1.302768 0 2 tcp 1540 ------- 0 0.0 4.0 41 72
r 1.302891 2 0 ack 40 ------- 0 4.0 0.0 26 57
+ 1.302891 0 2 tcp 1540 ------- 0 0.0 4.0 46 77
- 1.302891 0 2 tcp 1540 ------- 0 0.0 4.0 42 73
r 1.303014 2 0 ack 40 ------- 0 4.0 0.0 27 58
+ 1.303014 0 2 tcp 1540 ------- 0 0.0 4.0 47 78
- 1.303014 0 2 tcp 1540 ------- 0 0.0 4.0 43 74
r 1.303138 2 0 ack 40 ------- 0 4.0 0.0 28 59
+ 1.303138 0 2 tcp 1540 ------- 0 0.0 4.0 48 79
- 1.303138 0 2 tcp 1540 ------- 0 0.0 4.0 44 75
r 1.303261 2 0 ack 40 ------- 0 4.0 0.0 29 60
+ 1.303261 0 2 tcp 1540 ------- 0 0.0 4.0 49 80
- 1.303261 0 2 tcp 1540 ------- 0 0.0 4.0 45 76
r 1.303384 2 0 ack 40 ------- 0 4.0 0.0 30 61
+ 1.303384 0 2 tcp 1540 ------- 0 0.0 4.0 50 81
- 1.303384 0 2 tcp 1540 ------- 0 0.0 4.0 46 77
- 1.303507 0 2 tcp 1540 ------- 0 0.0 4.0 47 78
- 1.30363 0 2 tcp 1540 ------- 0 0.0 4.0 48 79
- 1.303754 0 2 tcp 1540 ------- 0 0.0 4.0 49 80
- 1.303877 0 2 tcp 1540 ------- 0 0.0 4.0 50 81
r 1.311659 0 2 tcp 1540 ------- 0 0.0 4.0 31 62
+ 1.311659 2 3 tcp 1540 ------- 0 0.0 4.0 31 62
- 1.311659 2 3 tcp 1540 ------- 0 0.0 4.0 31 62
r 1.311782 0 2 tcp 1540 ------- 0 0.0 4.0 32 63
+ 1.311782 2 3 tcp 1540 ------- 0 0.0 4.0 32 63
- 1.311782 2 3 tcp 1540 ------- 0 0.0 4.0 32 63
r 1.311906 0 2 tcp 1540 ------- 0 0.0 4.0 33 64
+ 1.311906 2 3 tcp 1540 ------- 0 0.0 4.0 33 64
- 1.311906 2 3 tcp 1540 ------- 0 0.0 4.0 33 64
r 1.312029 0 2 tcp 1540 ------- 0 0.0 4.0 34 65
+ 1.312029 2 3 tcp 1540 ------- 0 0.0 4.0 34 65
- 1.312029 2 3 tcp 1540 ------- 0 0.0 4.0 34 65
r 1.312152 0 2 tcp 1540 ------- 0 0.0 4.0 35 66
+ 1.312152 2 3 tcp 1540 ------- 0 0.0 4.0 35 66
- 1.312152 2 3 tcp 1540 ------- 0 0.0 4.0 35 66
r 1.312275 0 2 tcp 1540 ------- 0 0.0 4.0 36 67
+ 1.312275 2 3 tcp 1540 ------- 0 0.0 4.0 36 67
- 1.312275 2 3 tcp 1540 ------- 0 0.0 4.0 36 67
r 1.312398 0 2 tcp 1540 ------- 0 0.0 4.0 37 68
+ 1.312398 2 3 tcp 1540 ------- 0 0.0 4.0 37 68
- 1.312398 2 3 tcp 1540 ------- 0 0.0 4.0 37 68
r 1.312522 0 2 tcp 1540 ------- 0 0.0 4.0 38 69
+ 1.312522 2 3 tcp 1540 ------- 0 0.0 4.0 38 69
- 1.312522 2 3 tcp 1540 ------- 0 0.0 4.0 38 69
r 1.312645 0 2 tcp 1540 ------- 0 0.0 4.0 39 70
+ 1.312645 2 3 tcp 1540 ------- 0 0.0 4.0 39 70
- 1.312645 2 3 tcp 1540 ------- 0 0.0 4.0 39 70
r 1.312768 0 2 tcp 1540 ------- 0 0.0 4.0 40 71
+ 1.312768 2 3 tcp 1540 ------- 0 0.0 4.0 40 71
- 1.312768 2 3 tcp 1540 ------- 0 0.0 4.0 40 71
r 1.312891 0 2 tcp 1540 ------- 0 0.0 4.0 41 72
+ 1.312891 2 3 tcp 1540 ------- 0 0.0 4.0 41 72
- 1.312891 2 3 tcp 1540 ------- 0 0.0 4.0 41 72
r 1.313014 0 2 tcp 1540 ------- 0 0.0 4.0 42 73
+ 1.313014 2 3 tcp 1540 ------- 0 0.0 4.0 42 73
- 1.313014 2 3 tcp 1540 ------- 0 0.0 4.0 42 73
r 1.313138 0 2 tcp 1540 ------- 0 0.0 4.0 43 74
+ 1.313138 2 3 tcp 1540 ------- 0 0.0 4.0 43 74
- 1.313138 2 3 tcp 1540 ------- 0 0.0 4.0 43 74
r 1.313261 0 2 tcp 1540 ------- 0 0.0 4.0 44 75
+ 1.313261 2 3 tcp 1540 ------- 0 0.0 4.0 44 75
- 1.313261 2 3 tcp 1540 ------- 0 0.0 4.0 44 75
r 1.313384 0 2 tcp 1540 ------- 0 0.0 4.0 45 76
+ 1.313384 2 3 tcp 1540 ------- 0 0.0 4.0 45 76
- 1.313384 2 3 tcp 1540 ------- 0 0.0 4.0 45 76
r 1.313507 0 2 tcp 1540 ------- 0 0.0 4.0 46 77